Title Card Required                                                     
Freq      RB3LYP                                                      6-31G(d,p)          
Number of atoms                            I                3
Info1-9                                    I   N=           9
          13          12           0           0           0         101
           6          18        -502
Full Title                                 C   N=           2
Title Card Required     
Route                                      C   N=           4
#p freq=intmodes b3lyp/6-31g(d,p) Iop(7/32=5)   
Charge                                     I                0
Multiplicity                               I                1
Number of electrons                        I               10
Number of alpha electrons                  I                5
Number of beta electrons                   I                5
Number of basis functions                  I               25
Number of independent functions            I               25
Number of point charges in /Mol/           I                0
Number of translation vectors              I                0
Atomic numbers                             I   N=           3
           8           1           1
Nuclear charges                            R   N=           3
  8.00000000E+00  1.00000000E+00  1.00000000E+00
Current cartesian coordinates              R   N=           9
  1.37915702E-17  1.37915702E-17  2.25232678E-01  2.08410028E-16  1.43484260E+00
 -9.00934493E-01 -4.94460129E-16 -1.43484260E+00 -9.00934493E-01
Number of symbols in /Mol/                 I                0
Redundant internal dimensions              I   N=           4
           3           2           1           0
Redundant internal coordinate indices      I   N=          12
           1           2           0           0           1           3
           0           0           2           1           3           0
Redundant internal coordinates             R   N=           3
  1.82401364E+00  1.82401364E+00  1.81069669E+00
ZRed-IntVec                                I   N=           3
           0           0           0
ZRed-FPVec                                 R   N=           3
  0.00000000E+00  0.00000000E+00  0.00000000E+00
ZRed-Constraint1                           R   N=           3
  1.82401364E+00  1.82401364E+00  1.81069669E+00
ZRed-Constraint2                           R   N=           3
  0.00000000E+00  0.00000000E+00  0.00000000E+00
Force Field                                I                0
Atom Types                                 C   N=           3
                                    
Int Atom Types                             I   N=           3
           0           0           0
MM charges                                 R   N=           3
  0.00000000E+00  0.00000000E+00  0.00000000E+00
Integer atomic weights                     I   N=           3
          16           1           1
Real atomic weights                        R   N=           3
  1.59949146E+01  1.00782504E+00  1.00782504E+00
Atom fragment info                         I   N=           3
           0           0           0
Atom residue num                           I   N=           3
           0           0           0
Nuclear spins                              I   N=           3
           0           1           1
Nuclear ZEff                               R   N=           3
 -5.60000000E+00 -1.00000000E+00 -1.00000000E+00
Nuclear ZNuc                               R   N=           3
  8.00000000E+00  1.00000000E+00  1.00000000E+00
Nuclear QMom                               R   N=           3
  0.00000000E+00  0.00000000E+00  0.00000000E+00
Nuclear GFac                               R   N=           3
  0.00000000E+00  2.79284600E+00  2.79284600E+00
MicOpt                                     I   N=           3
          -1          -1          -1
Number of residues                         I                0
Number of secondary structures             I                0
SymInf integers                            I   N=          26
           2           4           1           1           1          -1
          -1           1          -1           1           1           1
          -1           1           0           0           0           0
           0           0           0           0           0           0
           0           0
RotTr to input orientation                 R   N=          12
  1.00000000E+00 -1.83697020E-16 -6.12323400E-17  1.83697020E-16  1.00000000E+00
 -6.12323400E-17  6.12323400E-17  6.12323400E-17  1.00000000E+00  0.00000000E+00
  0.00000000E+00 -7.55890453E-07
Number of contracted shells                I               10
Number of primitive shells                 I               21
Pure/Cartesian d shells                    I                1
Pure/Cartesian f shells                    I                0
Highest angular momentum                   I                2
Largest degree of contraction              I                6
Shell types                                I   N=          10
           0          -1          -1           2           0           0
           1           0           0           1
Number of primitives per shell             I   N=          10
           6           3           1           1           3           1
           1           3           1           1
Shell to atom map                          I   N=          10
           1           1           1           1           2           2
           2           3           3           3
Primitive exponents                        R   N=          21
  5.48467166E+03  8.25234946E+02  1.88046958E+02  5.29645000E+01  1.68975704E+01
  5.79963534E+00  1.55396162E+01  3.59993359E+00  1.01376175E+00  2.70005823E-01
  8.00000000E-01  1.87311370E+01  2.82539436E+00  6.40121692E-01  1.61277759E-01
  1.10000000E+00  1.87311370E+01  2.82539436E+00  6.40121692E-01  1.61277759E-01
  1.10000000E+00
Contraction coefficients                   R   N=          21
  1.83107443E-03  1.39501722E-02  6.84450781E-02  2.32714336E-01  4.70192898E-01
  3.58520853E-01 -1.10777550E-01 -1.48026263E-01  1.13076702E+00  1.00000000E+00
  1.00000000E+00  3.34946043E-02  2.34726953E-01  8.13757326E-01  1.00000000E+00
  1.00000000E+00  3.34946043E-02  2.34726953E-01  8.13757326E-01  1.00000000E+00
  1.00000000E+00
P(S=P) Contraction coefficients            R   N=          21
  0.00000000E+00  0.00000000E+00  0.00000000E+00  0.00000000E+00  0.00000000E+00
  0.00000000E+00  7.08742682E-02  3.39752839E-01  7.27158577E-01  1.00000000E+00
  0.00000000E+00  0.00000000E+00  0.00000000E+00  0.00000000E+00  0.00000000E+00
  0.00000000E+00  0.00000000E+00  0.00000000E+00  0.00000000E+00  0.00000000E+00
  0.00000000E+00
Coordinates of each shell                  R   N=          30
 -1.54074396E-33 -1.54074396E-33  2.25233434E-01 -1.54074396E-33 -1.54074396E-33
  2.25233434E-01 -1.54074396E-33 -1.54074396E-33  2.25233434E-01 -1.54074396E-33
 -1.54074396E-33  2.25233434E-01  6.16297582E-33  1.43484260E+00 -9.00933737E-01
  6.16297582E-33  1.43484260E+00 -9.00933737E-01  6.16297582E-33  1.43484260E+00
 -9.00933737E-01 -1.75717539E-16 -1.43484260E+00 -9.00933737E-01 -1.75717539E-16
 -1.43484260E+00 -9.00933737E-01 -1.75717539E-16 -1.43484260E+00 -9.00933737E-01
Constraint Structure                       R   N=           9
 -1.54074396E-33 -1.54074396E-33  2.25233434E-01  6.16297582E-33  1.43484260E+00
 -9.00933737E-01 -1.75717539E-16 -1.43484260E+00 -9.00933737E-01
Num ILSW                                   I              100
ILSW                                       I   N=         100
           0           1           0           0           2           0
           0           0           0           0         402          -1
           0           0           0           0           2           0
           0           0           0           0           1           0
           1           0           0           0           0           0
           0           0      100000           0          -1           0
           0           0           0           0           0           0
           0           0           0           1           0           0
           0           0           1           0           0           0
           0           0           4          41           0           0
           0           0           5           0           0           0
           0           0           0           3           0           0
           0           0           0           0           0           0
           0           0           0           0           0           0
           0           0           0           0           0           0
           0           0           0           0           0           0
           0           0           0           0
Num RLSW                                   I               41
RLSW                                       R   N=          41
  8.00000000E-01  7.20000000E-01  1.00000000E+00  8.10000000E-01  2.00000000E-01
  0.00000000E+00  0.00000000E+00  1.00000000E+00  0.00000000E+00  0.00000000E+00
  0.00000000E+00  0.00000000E+00  1.00000000E+00  0.00000000E+00  0.00000000E+00
  0.00000000E+00  0.00000000E+00  1.00000000E+00  0.00000000E+00  0.00000000E+00
  0.00000000E+00  0.00000000E+00  1.00000000E+00  0.00000000E+00  0.00000000E+00
  0.00000000E+00  0.00000000E+00  1.00000000E+00  0.00000000E+00  0.00000000E+00
  0.00000000E+00  0.00000000E+00  1.00000000E+00  0.00000000E+00  0.00000000E+00
  0.00000000E+00  0.00000000E+00  0.00000000E+00  1.00000000E+00  1.00000000E+00
  0.00000000E+00
MxBond                                     I                2
NBond                                      I   N=           3
           2           1           1
IBond                                      I   N=           6
           2           3           1           0           1           0
RBond                                      R   N=           6
  1.00000000E+00  1.00000000E+00  1.00000000E+00  0.00000000E+00  1.00000000E+00
  0.00000000E+00
Virial Ratio                               R      2.007820873180428E+00
SCF Energy                                 R     -7.641973661807865E+01
Total Energy                               R     -7.641973661807865E+01
RMS Force                                  R      6.261590589839434E-05
RMS Density                                R      2.983280402358600E-09
Job Status                                 I                1
Nuclear derivative order                   I                2
External E-field                           R   N=          35
  0.00000000E+00  0.00000000E+00  0.00000000E+00  0.00000000E+00  0.00000000E+00
  0.00000000E+00  0.00000000E+00  0.00000000E+00  0.00000000E+00  0.00000000E+00
  0.00000000E+00  0.00000000E+00  0.00000000E+00  0.00000000E+00  0.00000000E+00
  0.00000000E+00  0.00000000E+00  0.00000000E+00  0.00000000E+00  0.00000000E+00
  0.00000000E+00  0.00000000E+00  0.00000000E+00  0.00000000E+00  0.00000000E+00
  0.00000000E+00  0.00000000E+00  0.00000000E+00  0.00000000E+00  0.00000000E+00
  0.00000000E+00  0.00000000E+00  0.00000000E+00  0.00000000E+00  0.00000000E+00
IOpCl                                      I                0
IROHF                                      I                0
Alpha Orbital Energies                     R   N=          25
 -1.91379875E+01 -9.97350423E-01 -5.15027743E-01 -3.71019140E-01 -2.91967312E-01
  6.53732421E-02  1.51261062E-01  7.56901982E-01  8.05564150E-01  8.91352125E-01
  8.93540403E-01  1.01557409E+00  1.17537949E+00  1.52950670E+00  1.53769566E+00
  1.64365201E+00  2.23881767E+00  2.26827758E+00  2.45027124E+00  2.64113159E+00
  2.66684359E+00  3.02803333E+00  3.30737475E+00  3.53163251E+00  3.69298678E+00
Alpha MO coefficients                      R   N=         625
  9.92880930E-01  2.62256084E-02  0.00000000E+00  0.00000000E+00 -1.24167740E-03
  1.02921886E-02  0.00000000E+00  0.00000000E+00 -2.22000814E-04 -7.74342810E-03
 -7.49331317E-03 -7.54665596E-03  0.00000000E+00  0.00000000E+00  0.00000000E+00
  1.47713819E-04 -1.14904956E-03  0.00000000E+00  2.75800802E-04 -1.68978299E-04
  1.47713819E-04 -1.14904956E-03  0.00000000E+00 -2.75800802E-04 -1.68978299E-04
 -2.10484018E-01  4.67594949E-01  0.00000000E+00  0.00000000E+00 -1.19197762E-01
  4.22113425E-01  0.00000000E+00  0.00000000E+00 -4.11126454E-02 -8.07946574E-03
  1.82008135E-04  2.98196837E-03  0.00000000E+00  0.00000000E+00  0.00000000E+00
  1.52010635E-01  1.77513331E-02  0.00000000E+00 -2.10559707E-02  1.24402012E-02
  1.52010635E-01  1.77513331E-02  0.00000000E+00  2.10559707E-02  1.24402012E-02
  0.00000000E+00  0.00000000E+00  0.00000000E+00  5.14004197E-01  0.00000000E+00
  0.00000000E+00  0.00000000E+00  2.47206534E-01  0.00000000E+00  0.00000000E+00
  0.00000000E+00  0.00000000E+00  0.00000000E+00  0.00000000E+00 -2.88393284E-02
  2.44136700E-01  1.57217668E-01  0.00000000E+00 -6.10196393E-03  1.58451392E-02
 -2.44136700E-01 -1.57217668E-01  0.00000000E+00 -6.10196393E-03 -1.58451392E-02
 -8.76286745E-02  1.74168698E-01  0.00000000E+00  0.00000000E+00  5.52669605E-01
  4.16360552E-01  0.00000000E+00  0.00000000E+00  3.64059177E-01 -1.44348906E-03
 -4.43980617E-03 -4.62080266E-02  0.00000000E+00  0.00000000E+00  0.00000000E+00
 -1.44214834E-01 -1.16305981E-01  0.00000000E+00  1.02697826E-02  1.06028585E-02
 -1.44214834E-01 -1.16305981E-01  0.00000000E+00 -1.02697826E-02  1.06028585E-02
  0.00000000E+00  0.00000000E+00  6.43963667E-01  0.00000000E+00  0.00000000E+00
  0.00000000E+00  4.94566549E-01  0.00000000E+00  0.00000000E+00  0.00000000E+00
  0.00000000E+00  0.00000000E+00  0.00000000E+00 -2.90863559E-02  0.00000000E+00
  0.00000000E+00  0.00000000E+00  2.09897656E-02  0.00000000E+00  0.00000000E+00
  0.00000000E+00  0.00000000E+00  2.09897656E-02  0.00000000E+00  0.00000000E+00
 -1.01140806E-01  1.17641945E-01  0.00000000E+00  0.00000000E+00 -2.75903762E-01
  1.26142295E+00  0.00000000E+00  0.00000000E+00 -4.69967980E-01 -5.76079792E-02
 -5.17872322E-02 -3.24328001E-02  0.00000000E+00  0.00000000E+00  0.00000000E+00
 -9.02784112E-02 -9.69409313E-01  0.00000000E+00 -7.03956933E-03  4.34564452E-03
 -9.02784112E-02 -9.69409313E-01  0.00000000E+00  7.03956933E-03  4.34564452E-03
  0.00000000E+00  0.00000000E+00  0.00000000E+00 -4.10590526E-01  0.00000000E+00
  0.00000000E+00  0.00000000E+00 -7.58559560E-01  0.00000000E+00  0.00000000E+00
  0.00000000E+00  0.00000000E+00  0.00000000E+00  0.00000000E+00  1.83934115E-02
  1.03561539E-01  1.28672304E+00  0.00000000E+00 -2.82010685E-03 -3.75541275E-03
 -1.03561539E-01 -1.28672304E+00  0.00000000E+00 -2.82010685E-03  3.75541275E-03
  0.00000000E+00  0.00000000E+00  0.00000000E+00  2.02225873E-01  0.00000000E+00
  0.00000000E+00  0.00000000E+00  1.66753321E-01  0.00000000E+00  0.00000000E+00
  0.00000000E+00  0.00000000E+00  0.00000000E+00  0.00000000E+00  2.65623440E-01
 -7.70828171E-01  7.95153413E-01  0.00000000E+00 -4.95574459E-02  9.95841724E-02
  7.70828171E-01 -7.95153413E-01  0.00000000E+00 -4.95574459E-02 -9.95841724E-02
  3.72627886E-02 -8.75950778E-02  0.00000000E+00  0.00000000E+00  6.47936929E-01
  2.38255148E-01  0.00000000E+00  0.00000000E+00 -5.58242247E-01 -1.08596152E-01
  2.62286147E-01  9.43703082E-02  0.00000000E+00  0.00000000E+00  0.00000000E+00
  5.66697714E-01 -6.01232164E-01  0.00000000E+00  1.64437452E-01 -6.82144562E-02
  5.66697714E-01 -6.01232164E-01  0.00000000E+00 -1.64437452E-01 -6.82144562E-02
  0.00000000E+00  0.00000000E+00 -9.59669947E-01  0.00000000E+00  0.00000000E+00
  0.00000000E+00  1.03731964E+00  0.00000000E+00  0.00000000E+00  0.00000000E+00
  0.00000000E+00  0.00000000E+00  0.00000000E+00 -1.60389642E-02  0.00000000E+00
  0.00000000E+00  0.00000000E+00  2.01620870E-03  0.00000000E+00  0.00000000E+00
  0.00000000E+00  0.00000000E+00  2.01620870E-03  0.00000000E+00  0.00000000E+00
  1.30971143E-02 -8.16593791E-01  0.00000000E+00  0.00000000E+00 -5.29702858E-01
  1.34974959E+00  0.00000000E+00  0.00000000E+00  8.07033662E-01 -3.23623179E-01
 -1.47433965E-01 -2.72258994E-01  0.00000000E+00  0.00000000E+00  0.00000000E+00
  5.02654433E-01 -3.81591492E-01  0.00000000E+00  1.98698240E-02  3.71594916E-02
  5.02654433E-01 -3.81591492E-01  0.00000000E+00 -1.98698240E-02  3.71594916E-02
  0.00000000E+00  0.00000000E+00  0.00000000E+00 -8.64426256E-01  0.00000000E+00
  0.00000000E+00  0.00000000E+00  1.79573148E+00  0.00000000E+00  0.00000000E+00
  0.00000000E+00  0.00000000E+00  0.00000000E+00  0.00000000E+00 -9.10501032E-02
 -1.52374925E-01 -9.63901535E-01  0.00000000E+00  1.44825870E-01 -9.02239379E-02
  1.52374925E-01  9.63901535E-01  0.00000000E+00  1.44825870E-01  9.02239379E-02
 -7.68261432E-02 -1.42560768E+00  0.00000000E+00  0.00000000E+00  3.51368714E-01
  3.52781257E+00  0.00000000E+00  0.00000000E+00 -9.90395805E-01 -2.77741466E-01
 -6.25742202E-01 -3.33482950E-01  0.00000000E+00  0.00000000E+00  0.00000000E+00
 -3.26592691E-01 -7.70398150E-01  0.00000000E+00 -3.37078873E-02 -1.10021878E-01
 -3.26592691E-01 -7.70398150E-01  0.00000000E+00  3.37078873E-02 -1.10021878E-01
  0.00000000E+00  0.00000000E+00  0.00000000E+00  0.00000000E+00  0.00000000E+00
  0.00000000E+00  0.00000000E+00  0.00000000E+00  0.00000000E+00  0.00000000E+00
  0.00000000E+00  0.00000000E+00  6.80082813E-01  0.00000000E+00  0.00000000E+00
  0.00000000E+00  0.00000000E+00  3.50680073E-01  0.00000000E+00  0.00000000E+00
  0.00000000E+00  0.00000000E+00 -3.50680073E-01  0.00000000E+00  0.00000000E+00
 -2.81058297E-02 -3.23880159E-01  0.00000000E+00  0.00000000E+00  6.19850985E-02
  9.01946881E-01  0.00000000E+00  0.00000000E+00 -5.19620775E-01  2.45628031E-01
  2.55679090E-01 -7.88606721E-01  0.00000000E+00  0.00000000E+00  0.00000000E+00
 -2.37554838E-01 -1.56557889E-01  0.00000000E+00  1.82592934E-01  2.48209703E-01
 -2.37554838E-01 -1.56557889E-01  0.00000000E+00 -1.82592934E-01  2.48209703E-01
  0.00000000E+00  0.00000000E+00  1.49639683E-02  0.00000000E+00  0.00000000E+00
  0.00000000E+00  2.04980850E-01  0.00000000E+00  0.00000000E+00  0.00000000E+00
  0.00000000E+00  0.00000000E+00  0.00000000E+00  7.83564439E-01  0.00000000E+00
  0.00000000E+00  0.00000000E+00 -3.00687447E-01  0.00000000E+00  0.00000000E+00
  0.00000000E+00  0.00000000E+00 -3.00687447E-01  0.00000000E+00  0.00000000E+00
 -4.71127010E-02 -5.67727956E-01  0.00000000E+00  0.00000000E+00  2.08725077E-01
  1.36648006E+00  0.00000000E+00  0.00000000E+00 -6.37140074E-01 -1.06662454E+00
  5.21438136E-01  3.36081402E-02  0.00000000E+00  0.00000000E+00  0.00000000E+00
 -6.24401128E-01 -9.23341416E-02  0.00000000E+00 -1.61285610E-01  1.58214153E-01
 -6.24401128E-01 -9.23341416E-02  0.00000000E+00  1.61285610E-01  1.58214153E-01
  0.00000000E+00  0.00000000E+00  0.00000000E+00  3.78709425E-02  0.00000000E+00
  0.00000000E+00  0.00000000E+00 -4.78813397E-01  0.00000000E+00  0.00000000E+00
  0.00000000E+00  0.00000000E+00  0.00000000E+00  0.00000000E+00 -1.45332506E-01
  1.04108320E-01  1.03086382E-01  0.00000000E+00  4.79705187E-01  5.82467936E-01
 -1.04108320E-01 -1.03086382E-01  0.00000000E+00  4.79705187E-01 -5.82467936E-01
  0.00000000E+00  0.00000000E+00  0.00000000E+00  3.40699050E-01  0.00000000E+00
  0.00000000E+00  0.00000000E+00 -4.82707743E-01  0.00000000E+00  0.00000000E+00
  0.00000000E+00  0.00000000E+00  0.00000000E+00  0.00000000E+00  7.98007219E-01
  5.38516740E-01 -2.01960793E-01  0.00000000E+00  3.32016564E-01 -2.33052938E-01
 -5.38516740E-01  2.01960793E-01  0.00000000E+00  3.32016564E-01  2.33052938E-01
  0.00000000E+00  0.00000000E+00  0.00000000E+00  0.00000000E+00  0.00000000E+00
  0.00000000E+00  0.00000000E+00  0.00000000E+00  0.00000000E+00  0.00000000E+00
  0.00000000E+00  0.00000000E+00  8.80643711E-01  0.00000000E+00  0.00000000E+00
  0.00000000E+00  0.00000000E+00 -7.09082124E-01  0.00000000E+00  0.00000000E+00
  0.00000000E+00  0.00000000E+00  7.09082124E-01  0.00000000E+00  0.00000000E+00
  0.00000000E+00  0.00000000E+00 -1.34998955E-02  0.00000000E+00  0.00000000E+00
  0.00000000E+00 -4.17631746E-01  0.00000000E+00  0.00000000E+00  0.00000000E+00
  0.00000000E+00  0.00000000E+00  0.00000000E+00  7.36634147E-01  0.00000000E+00
  0.00000000E+00  0.00000000E+00  7.62976073E-01  0.00000000E+00  0.00000000E+00
  0.00000000E+00  0.00000000E+00  7.62976073E-01  0.00000000E+00  0.00000000E+00
  2.05040446E-02 -1.81795606E-01  0.00000000E+00  0.00000000E+00  4.55931175E-02
  1.32146274E-01  0.00000000E+00  0.00000000E+00 -4.61533323E-01 -2.07617421E-02
 -7.49868608E-01  9.48311145E-01  0.00000000E+00  0.00000000E+00  0.00000000E+00
 -9.07759369E-02 -4.50403765E-02  0.00000000E+00  4.48256229E-01  6.76543005E-01
 -9.07759369E-02 -4.50403765E-02  0.00000000E+00 -4.48256229E-01  6.76543005E-01
 -2.46842972E-01  2.00026583E-01  0.00000000E+00  0.00000000E+00 -4.37242656E-01
  2.84670762E+00  0.00000000E+00  0.00000000E+00 -8.59367559E-01 -1.19137853E+00
 -4.21477440E-02 -3.01944981E-01  0.00000000E+00  0.00000000E+00  0.00000000E+00
 -7.81044516E-01 -5.75401079E-01  0.00000000E+00  7.65025621E-01 -4.58400138E-01
 -7.81044516E-01 -5.75401079E-01  0.00000000E+00 -7.65025621E-01 -4.58400138E-01
  0.00000000E+00  0.00000000E+00  0.00000000E+00 -6.92746784E-01  0.00000000E+00
  0.00000000E+00  0.00000000E+00 -1.34224311E+00  0.00000000E+00  0.00000000E+00
  0.00000000E+00  0.00000000E+00  0.00000000E+00  0.00000000E+00  1.48347752E+00
  1.18672028E+00  5.37190713E-01  0.00000000E+00 -8.06860873E-01  6.99955051E-01
 -1.18672028E+00 -5.37190713E-01  0.00000000E+00 -8.06860873E-01 -6.99955051E-01
 -4.02348054E-01  1.70194340E-01  0.00000000E+00  0.00000000E+00  4.58692273E-01
  2.59935488E+00  0.00000000E+00  0.00000000E+00  1.19530439E-01 -1.13969969E+00
 -1.93864042E+00 -1.57746335E+00  0.00000000E+00  0.00000000E+00  0.00000000E+00
  6.59170887E-01 -2.79997459E-01  0.00000000E+00 -4.86248231E-01  4.29662598E-01
  6.59170887E-01 -2.79997459E-01  0.00000000E+00  4.86248231E-01  4.29662598E-01
Total SCF Density                          R   N=         325
  2.07558970E+00 -1.75289059E-01  4.99335109E-01  0.00000000E+00  0.00000000E+00
  8.29378409E-01  0.00000000E+00  0.00000000E+00  3.08148791E-33  5.28400628E-01
 -4.91466375E-02  8.09778205E-02  0.00000000E+00  1.97001581E-33  6.39306680E-01
 -2.30228670E-01  5.40329999E-01  0.00000000E+00  1.10799253E-33  3.59564133E-01
  7.03283564E-01  0.00000000E+00  0.00000000E+00  6.36965777E-01  3.08148791E-33
 -1.96280234E-33  0.00000000E+00  4.89192142E-01  0.00000000E+00  0.00000000E+00
  3.08148791E-33  2.54130391E-01  1.56619946E-33  0.00000000E+00  4.62223187E-33
  1.22222140E-01 -4.69377774E-02  8.83556510E-02  0.00000000E+00  1.27022169E-33
  4.12210504E-01  2.68446791E-01  0.00000000E+00  8.27252442E-34  2.68458766E-01
 -1.17224253E-02 -8.46480820E-03  0.00000000E+00  1.07788321E-36  3.49793100E-04
 -8.18231936E-03  0.00000000E+00 -1.18099985E-36 -3.83256363E-04  2.54644212E-04
 -1.41784464E-02 -1.76937175E-03 -5.34552942E-51 -1.73433867E-34 -4.93227321E-03
 -3.69770932E-03 -9.35467649E-51 -8.60994226E-35 -3.24434298E-03  1.25924430E-04
  1.51789496E-04 -8.14287870E-03 -1.37031083E-02  1.99940959E-34 -4.75991765E-34
 -5.17676905E-02 -3.61162844E-02  1.53555418E-34 -2.56625663E-34 -3.38867547E-02
  2.02090115E-04  5.24493761E-04  4.40205175E-03  0.00000000E+00 -1.11193617E-34
 -1.15435966E-34  1.23449714E-50  8.33952129E-35 -5.55968086E-35 -8.86552618E-35
  0.00000000E+00  4.16976064E-35  1.73740027E-36 -2.17175034E-37 -3.47480054E-36
  1.54560093E-36  4.17106839E-35  3.01194445E-35 -3.74611129E-02 -1.11193617E-34
  1.14191334E-34  2.91142940E-35 -2.87702773E-02 -2.77984043E-34  9.00189630E-35
 -9.06073954E-37 -4.48063771E-37 -9.74994888E-36  5.21397678E-36  1.69203220E-03
 -1.29873332E-34 -6.13498837E-35 -1.11193617E-34 -2.96470716E-02 -4.02013749E-34
 -1.54823157E-34 -2.77984043E-34 -1.42585408E-02 -2.31538764E-34  1.61520373E-36
  1.18245724E-35  3.71521197E-35  0.00000000E+00  6.26930320E-36  1.66341372E-03
 -3.84235847E-02  9.19311387E-02 -3.08148791E-33  2.50974577E-01 -1.95645332E-01
  8.24376493E-03 -1.54074396E-33  1.20704375E-01 -1.17504652E-01 -2.04227200E-03
  1.33369243E-03  1.42321181E-02 -4.16976064E-35  1.66790426E-34 -1.40814769E-02
  2.07015803E-01  1.06289952E-02 -2.39731242E-02 -2.31111593E-33  1.61621083E-01
 -1.32786546E-01 -8.18879451E-02 -7.70371978E-34  7.77304696E-02 -8.61436175E-02
  6.67254112E-05  1.05643417E-03  1.08717505E-02 -2.08488032E-35  1.11193617E-34
 -9.06810393E-03  1.15707744E-01  7.71218131E-02 -9.62964972E-35  1.92592994E-34
  2.70332928E-02  3.85185989E-34 -3.85185989E-34  9.62964972E-35  2.07616718E-02
  3.85185989E-34 -1.44444746E-34 -3.00926554E-36  1.50463277E-36  1.80555932E-35
 -7.30677047E-36 -1.22103158E-03 -2.08488032E-35  1.44444746E-34  7.22223729E-35
  8.81140517E-04  7.61171046E-03 -1.60995156E-02  3.85185989E-34 -6.27287013E-03
  1.63705576E-02 -9.21847391E-03  3.85185989E-34 -3.01689070E-03  9.20882803E-03
  3.06322062E-04 -1.02989727E-04 -1.07883200E-03  5.21220081E-36 -2.77984043E-35
  3.51953083E-04 -1.23429181E-02 -5.05572426E-03  0.00000000E+00  1.17226473E-03
 -7.43070658E-03  1.53184595E-02 -1.92592994E-34  1.62889361E-02  8.75448655E-03
  1.93280975E-02 -9.62964972E-35  7.83404385E-03  6.69731173E-03 -2.29013636E-04
 -8.70884226E-05 -9.03131318E-04 -2.60610040E-36  1.38992021E-35 -9.13926343E-04
  8.46061688E-03  2.95796860E-03  3.00926554E-36 -4.99569063E-04  1.03655240E-03
 -3.84235847E-02  9.19311387E-02  3.08148791E-33 -2.50974577E-01 -1.95645332E-01
  8.24376493E-03  1.54074396E-33 -1.20704375E-01 -1.17504652E-01 -2.04227200E-03
  1.33369243E-03  1.42321181E-02 -4.16976064E-35 -1.66790426E-34  1.40814769E-02
 -3.13951099E-02 -3.78226668E-02  7.22223729E-35 -6.38406478E-03 -7.01290307E-03
  2.07015803E-01  1.06289952E-02 -2.39731242E-02  2.31111593E-33 -1.61621083E-01
 -1.32786546E-01 -8.18879451E-02  7.70371978E-34 -7.77304696E-02 -8.61436175E-02
  6.67254112E-05  1.05643417E-03  1.08717505E-02 -2.08488032E-35 -1.11193617E-34
  9.06810393E-03 -3.78226668E-02 -2.17477679E-02  1.80555932E-35 -1.21837810E-03
 -7.00657474E-03  1.15707744E-01  7.71218131E-02  9.62964972E-35 -1.92592994E-34
  2.70332928E-02  3.85185989E-34  1.92592994E-34 -9.62964972E-35  2.07616718E-02
  3.85185989E-34  4.81482486E-35  3.00926554E-36 -1.50463277E-36 -6.01853108E-36
 -2.18417658E-37 -1.22103158E-03 -2.08488032E-35 -7.22223729E-35 -1.80555932E-35
  8.81140517E-04  2.40741243E-35 -4.51389831E-36 -1.44444746E-34 -7.22223729E-35
  8.81140517E-04 -7.61171046E-03  1.60995156E-02  3.85185989E-34 -6.27287013E-03
 -1.63705576E-02  9.21847391E-03  3.85185989E-34 -3.01689070E-03 -9.20882803E-03
 -3.06322062E-04  1.02989727E-04  1.07883200E-03 -5.21220081E-36 -2.77984043E-35
  3.51953083E-04  6.38406478E-03  1.21837810E-03  2.40741243E-35 -1.02332887E-03
  1.12823192E-04  1.23429181E-02  5.05572426E-03  0.00000000E+00  1.17226473E-03
 -7.43070658E-03  1.53184595E-02  1.92592994E-34 -1.62889361E-02  8.75448655E-03
  1.93280975E-02  9.62964972E-35 -7.83404385E-03  6.69731173E-03 -2.29013636E-04
 -8.70884226E-05 -9.03131318E-04 -2.60610040E-36 -6.94960107E-36  9.13926343E-04
 -7.01290307E-03 -7.00657474E-03 -1.50463277E-36 -1.12823192E-04  3.22786629E-05
  8.46061688E-03  2.95796860E-03 -9.02779661E-36  4.99569063E-04  1.03655240E-03
Grdnt Energy                               R     -7.641973661807865E+01
Grdnt NVar                                 I                3
Grdnt IGetFC                               I                4
Internal Forces                            R   N=           3
  9.87537342E-05  9.87537342E-05 -4.22131673E-06
Internal Force Constants                   R   N=           6
  5.34735438E-01 -7.30536813E-03  5.34735438E-01  3.24673812E-02  3.24673812E-02
  1.67266387E-01
Mulliken Charges                           R   N=           3
 -6.09847333E-01  3.04923666E-01  3.04923666E-01
Optimization MaxStp                        I                2
Optimization Job offset                    I                0
Optimization Num results per geometry      I                2
Optimization Num geometry variables        I                9
Opt point       1 Results for each geome   R   N=           2
 -7.64197366E+01  0.00000000E+00
Opt point       1 Geometries               R   N=           9
 -1.54074396E-33 -1.54074396E-33  2.25233434E-01  6.16297582E-33  1.43484260E+00
 -9.00933737E-01 -1.75717539E-16 -1.43484260E+00 -9.00933737E-01
Opt point       1 Gradient at each geome   R   N=           9
  6.93697174E-16 -2.04690594E-16 -1.25584446E-04  1.58326067E-17 -7.62547884E-05
  6.27922229E-05 -7.09529781E-16  7.62547884E-05  6.27922229E-05
Optimization Number of geometries          I   N=           1
           1
ONIOM Charges                              I   N=          16
           0           0           0           0           0           0
           0           0           0           0           0           0
           0           0           0           0
ONIOM Multiplicities                       I   N=          16
           1           0           0           0           0           0
           0           0           0           0           0           0
           0           0           0           0
Atom Layers                                I   N=           3
           1           1           1
Atom Modifiers                             I   N=           3
           0           0           0
Force Field                                I                0
Atom Modified Types                        C   N=           3
                                    
Int Atom Modified Types                    I   N=           3
           0           0           0
Link Atoms                                 I   N=           3
           0           0           0
Atom Modified MM Charges                   R   N=           3
  0.00000000E+00  0.00000000E+00  0.00000000E+00