
===
=== NSC g09 WRAPPER, version: 1.0
===
=== This invokation of Gaussian is made via an NSC wrapper script
=== with the primary purpose of adjusting parallelization settings
=== and to discover input errors. The bare Gaussian binary is available
=== with the suffix '.orig'
===
=== NSC g09 WRAPPER: Running Gaussian in stdin mode
 Entering Gaussian System, Link 0=/software/sse/easybuild/prefix/software/Gaussian/09.E.01-avx-nsc1-bdist/g09/g09.orig
 Initial command:
 /software/sse/easybuild/prefix/software/Gaussian/09.E.01-avx-nsc1-bdist/g09/l1.exe "/scratch/local/Gau-159073.inp" -scrdir="/scratch/local/"
 Entering Link 1 = /software/sse/easybuild/prefix/software/Gaussian/09.E.01-avx-nsc1-bdist/g09/l1.exe PID=    159077.
  
 Copyright (c) 1988,1990,1992,1993,1995,1998,2003,2009,2015,
            Gaussian, Inc.  All Rights Reserved.
  
 This is part of the Gaussian(R) 09 program.  It is based on
 the Gaussian(R) 03 system (copyright 2003, Gaussian, Inc.),
 the Gaussian(R) 98 system (copyright 1998, Gaussian, Inc.),
 the Gaussian(R) 94 system (copyright 1995, Gaussian, Inc.),
 the Gaussian 92(TM) system (copyright 1992, Gaussian, Inc.),
 the Gaussian 90(TM) system (copyright 1990, Gaussian, Inc.),
 the Gaussian 88(TM) system (copyright 1988, Gaussian, Inc.),
 the Gaussian 86(TM) system (copyright 1986, Carnegie Mellon
 University), and the Gaussian 82(TM) system (copyright 1983,
 Carnegie Mellon University). Gaussian is a federally registered
 trademark of Gaussian, Inc.
  
 This software contains proprietary and confidential information,
 including trade secrets, belonging to Gaussian, Inc.
  
 This software is provided under written license and may be
 used, copied, transmitted, or stored only in accord with that
 written license.
  
 The following legend is applicable only to US Government
 contracts under FAR:
  
                    RESTRICTED RIGHTS LEGEND
  
 Use, reproduction and disclosure by the US Government is
 subject to restrictions as set forth in subparagraphs (a)
 and (c) of the Commercial Computer Software - Restricted
 Rights clause in FAR 52.227-19.
  
 Gaussian, Inc.
 340 Quinnipiac St., Bldg. 40, Wallingford CT 06492
  
  
 ---------------------------------------------------------------
 Warning -- This program may not be used in any manner that
 competes with the business of Gaussian, Inc. or will provide
 assistance to any competitor of Gaussian, Inc.  The licensee
 of this program is prohibited from giving any competitor of
 Gaussian, Inc. access to this program.  By using this program,
 the user acknowledges that Gaussian, Inc. is engaged in the
 business of creating and licensing software in the field of
 computational chemistry and represents and warrants to the
 licensee that it is not a competitor of Gaussian, Inc. and that
 it will not use this program in any manner prohibited above.
 ---------------------------------------------------------------
  

 Cite this work as:
 Gaussian 09, Revision E.01,
 M. J. Frisch, G. W. Trucks, H. B. Schlegel, G. E. Scuseria, 
 M. A. Robb, J. R. Cheeseman, G. Scalmani, V. Barone, B. Mennucci, 
 G. A. Petersson, H. Nakatsuji, M. Caricato, X. Li, H. P. Hratchian, 
 A. F. Izmaylov, J. Bloino, G. Zheng, J. L. Sonnenberg, M. Hada, 
 M. Ehara, K. Toyota, R. Fukuda, J. Hasegawa, M. Ishida, T. Nakajima, 
 Y. Honda, O. Kitao, H. Nakai, T. Vreven, J. A. Montgomery, Jr., 
 J. E. Peralta, F. Ogliaro, M. Bearpark, J. J. Heyd, E. Brothers, 
 K. N. Kudin, V. N. Staroverov, T. Keith, R. Kobayashi, J. Normand, 
 K. Raghavachari, A. Rendell, J. C. Burant, S. S. Iyengar, J. Tomasi, 
 M. Cossi, N. Rega, J. M. Millam, M. Klene, J. E. Knox, J. B. Cross, 
 V. Bakken, C. Adamo, J. Jaramillo, R. Gomperts, R. E. Stratmann, 
 O. Yazyev, A. J. Austin, R. Cammi, C. Pomelli, J. W. Ochterski, 
 R. L. Martin, K. Morokuma, V. G. Zakrzewski, G. A. Voth, 
 P. Salvador, J. J. Dannenberg, S. Dapprich, A. D. Daniels, 
 O. Farkas, J. B. Foresman, J. V. Ortiz, J. Cioslowski, 
 and D. J. Fox, Gaussian, Inc., Wallingford CT, 2013.
 
 ******************************************
 Gaussian 09:  ES64L-G09RevE.01 30-Nov-2015
                17-Apr-2019 
 ******************************************
 %nprocshared=16
 Will use up to   16 processors via shared memory.
 %mem=16GB
 %chk=test_frq.chk
 ---------------------------------------------
 #p freq=intmodes b3lyp/6-31g(d,p) Iop(7/32=5)
 ---------------------------------------------
 1/10=4,18=20,30=1,38=1/1,3;
 2/9=110,12=2,17=6,18=5,40=1/2;
 3/5=1,6=6,7=101,11=2,16=1,25=1,30=1,71=2,74=-5,140=1/1,2,3;
 4//1;
 5/5=2,38=5,98=1/2;
 8/6=4,10=90,11=11/1;
 11/6=1,8=1,9=11,15=111,16=1/1,2,10;
 10/6=1/2;
 6/7=2,8=2,9=2,10=2,18=1,28=1/1;
 7/8=21,10=1,25=1,32=5/1,2,3,16;
 1/10=4,18=20,30=1/3;
 99//99;
 Leave Link    1 at Wed Apr 17 14:10:52 2019, MaxMem=  2147483648 cpu:         0.6
 (Enter /software/sse/easybuild/prefix/software/Gaussian/09.E.01-avx-nsc1-bdist/g09/l101.exe)
 -------------------
 Title Card Required
 -------------------
 Symbolic Z-matrix:
 Charge =  0 Multiplicity = 1
 O                     0.        0.        0.11919 
 H                     0.        0.75929  -0.47675 
 H                     0.       -0.75929  -0.47675 
 
 NAtoms=      3 NQM=        3 NQMF=       0 NMMI=      0 NMMIF=      0
                NMic=       0 NMicF=      0.
                    Isotopes and Nuclear Properties:
 (Nuclear quadrupole moments (NQMom) in fm**2, nuclear magnetic moments (NMagM)
  in nuclear magnetons)

  Atom         1           2           3
 IAtWgt=          16           1           1
 AtmWgt=  15.9949146   1.0078250   1.0078250
 NucSpn=           0           1           1
 AtZEff=   0.0000000   0.0000000   0.0000000
 NQMom=    0.0000000   0.0000000   0.0000000
 NMagM=    0.0000000   2.7928460   2.7928460
 AtZNuc=   8.0000000   1.0000000   1.0000000
 Leave Link  101 at Wed Apr 17 14:10:52 2019, MaxMem=  2147483648 cpu:         6.5
 (Enter /software/sse/easybuild/prefix/software/Gaussian/09.E.01-avx-nsc1-bdist/g09/l103.exe)

 GradGradGradGradGradGradGradGradGradGradGradGradGradGradGradGradGradGrad
 Berny optimization.
 Initialization pass.
                           ----------------------------
                           !    Initial Parameters    !
                           ! (Angstroms and Degrees)  !
 --------------------------                            --------------------------
 ! Name  Definition              Value          Derivative Info.                !
 --------------------------------------------------------------------------------
 ! R1    R(1,2)                  0.9652         calculate D2E/DX2 analytically  !
 ! R2    R(1,3)                  0.9652         calculate D2E/DX2 analytically  !
 ! A1    A(2,1,3)              103.7453         calculate D2E/DX2 analytically  !
 --------------------------------------------------------------------------------
 Trust Radius=3.00D-01 FncErr=1.00D-07 GrdErr=1.00D-07
 Number of steps in this run=      2 maximum allowed number of steps=      2.
 GradGradGradGradGradGradGradGradGradGradGradGradGradGradGradGradGradGrad

 Leave Link  103 at Wed Apr 17 14:10:52 2019, MaxMem=  2147483648 cpu:         0.1
 (Enter /software/sse/easybuild/prefix/software/Gaussian/09.E.01-avx-nsc1-bdist/g09/l202.exe)
                          Input orientation:                          
 ---------------------------------------------------------------------
 Center     Atomic      Atomic             Coordinates (Angstroms)
 Number     Number       Type             X           Y           Z
 ---------------------------------------------------------------------
      1          8           0        0.000000    0.000000    0.119188
      2          1           0        0.000000    0.759286   -0.476754
      3          1           0        0.000000   -0.759286   -0.476754
 ---------------------------------------------------------------------
                    Distance matrix (angstroms):
                    1          2          3
     1  O    0.000000
     2  H    0.965226   0.000000
     3  H    0.965226   1.518572   0.000000
 Stoichiometry    H2O
 Framework group  C2V[C2(O),SGV(H2)]
 Deg. of freedom     2
 Full point group                 C2V     NOp   4
 Largest Abelian subgroup         C2V     NOp   4
 Largest concise Abelian subgroup C2      NOp   2
                         Standard orientation:                         
 ---------------------------------------------------------------------
 Center     Atomic      Atomic             Coordinates (Angstroms)
 Number     Number       Type             X           Y           Z
 ---------------------------------------------------------------------
      1          8           0        0.000000   -0.000000    0.119188
      2          1           0        0.000000    0.759286   -0.476754
      3          1           0       -0.000000   -0.759286   -0.476754
 ---------------------------------------------------------------------
 Rotational constants (GHZ):    794.9493753    434.9018676    281.1112075
 Leave Link  202 at Wed Apr 17 14:10:52 2019, MaxMem=  2147483648 cpu:         0.7
 (Enter /software/sse/easybuild/prefix/software/Gaussian/09.E.01-avx-nsc1-bdist/g09/l301.exe)
 Standard basis: 6-31G(d,p) (6D, 7F)
 Ernie: Thresh=  0.10000D-02 Tol=  0.10000D-05 Strict=F.
 There are    12 symmetry adapted cartesian basis functions of A1  symmetry.
 There are     2 symmetry adapted cartesian basis functions of A2  symmetry.
 There are     4 symmetry adapted cartesian basis functions of B1  symmetry.
 There are     7 symmetry adapted cartesian basis functions of B2  symmetry.
 There are    12 symmetry adapted basis functions of A1  symmetry.
 There are     2 symmetry adapted basis functions of A2  symmetry.
 There are     4 symmetry adapted basis functions of B1  symmetry.
 There are     7 symmetry adapted basis functions of B2  symmetry.
    25 basis functions,    42 primitive gaussians,    25 cartesian basis functions
     5 alpha electrons        5 beta electrons
       nuclear repulsion energy         9.1203344870 Hartrees.
 IExCor=  402 DFT=T Ex+Corr=B3LYP ExCW=0 ScaHFX=  0.200000
 ScaDFX=  0.800000  0.720000  1.000000  0.810000 ScalE2=  1.000000  1.000000
 IRadAn=      0 IRanWt=     -1 IRanGd=            0 ICorTp=0 IEmpDi=  4
 NAtoms=    3 NActive=    3 NUniq=    2 SFac= 2.25D+00 NAtFMM=   60 NAOKFM=F Big=F
 Integral buffers will be    131072 words long.
 Raffenetti 2 integral format.
 Two-electron integral symmetry is turned on.
 Leave Link  301 at Wed Apr 17 14:10:52 2019, MaxMem=  2147483648 cpu:         0.9
 (Enter /software/sse/easybuild/prefix/software/Gaussian/09.E.01-avx-nsc1-bdist/g09/l302.exe)
 NPDir=0 NMtPBC=     1 NCelOv=     1 NCel=       1 NClECP=     1 NCelD=      1
         NCelK=      1 NCelE2=     1 NClLst=     1 CellRange=     0.0.
 One-electron integrals computed using PRISM.
 One-electron integral symmetry used in STVInt
 NBasis=    25 RedAO= T EigKep=  4.10D-02  NBF=    12     2     4     7
 NBsUse=    25 1.00D-06 EigRej= -1.00D+00 NBFU=    12     2     4     7
 Precomputing XC quadrature grid using
 IXCGrd= 4 IRadAn=           0 IRanWt=          -1 IRanGd=           0 AccXCQ= 0.00D+00.
 Generated NRdTot=       0 NPtTot=           0 NUsed=           0 NTot=          32
 NSgBfM=    25    25    25    25    25 MxSgAt=     3 MxSgA2=     3.
 Leave Link  302 at Wed Apr 17 14:10:53 2019, MaxMem=  2147483648 cpu:         6.4
 (Enter /software/sse/easybuild/prefix/software/Gaussian/09.E.01-avx-nsc1-bdist/g09/l303.exe)
 DipDrv:  MaxL=1.
 Leave Link  303 at Wed Apr 17 14:10:53 2019, MaxMem=  2147483648 cpu:         0.7
 (Enter /software/sse/easybuild/prefix/software/Gaussian/09.E.01-avx-nsc1-bdist/g09/l401.exe)
 ExpMin= 1.61D-01 ExpMax= 5.48D+03 ExpMxC= 8.25D+02 IAcc=1 IRadAn=         1 AccDes= 0.00D+00
 Harris functional with IExCor=  402 and IRadAn=       1 diagonalized for initial guess.
 HarFok:  IExCor=  402 AccDes= 0.00D+00 IRadAn=         1 IDoV= 1 UseB2=F ITyADJ=14
 ICtDFT=  3500011 ScaDFX=  1.000000  1.000000  1.000000  1.000000
 FoFCou: FMM=F IPFlag=           0 FMFlag=      100000 FMFlg1=           0
         NFxFlg=           0 DoJE=T BraDBF=F KetDBF=T FulRan=T
         wScrn=  0.000000 ICntrl=     500 IOpCl=  0 I1Cent=   200000004 NGrid=           0
         NMat0=    1 NMatS0=      1 NMatT0=    0 NMatD0=    1 NMtDS0=    0 NMtDT0=    0
 Petite list used in FoFCou.
 Harris En= -76.4581308642041    
 JPrj=0 DoOrth=F DoCkMO=F.
 Initial guess orbital symmetries:
       Occupied  (A1) (A1) (B2) (A1) (B1)
       Virtual   (A1) (B2) (B2) (A1) (B1) (A1) (B2) (A1) (A2) (A1)
                 (B1) (A1) (B2) (B2) (A2) (B1) (A1) (A1) (B2) (A1)
 The electronic state of the initial guess is 1-A1.
 Leave Link  401 at Wed Apr 17 14:10:54 2019, MaxMem=  2147483648 cpu:        11.4
 (Enter /software/sse/easybuild/prefix/software/Gaussian/09.E.01-avx-nsc1-bdist/g09/l502.exe)
 Closed shell SCF:
 Using DIIS extrapolation, IDIIS=  1040.
 Integral symmetry usage will be decided dynamically.
 Keep R1 ints in memory in symmetry-blocked form, NReq=935017.
 IVT=       21083 IEndB=       21083 NGot=  2147483648 MDV=  2147446452
 LenX=  2147446452 LenY=  2147445386
 Requested convergence on RMS density matrix=1.00D-08 within 128 cycles.
 Requested convergence on MAX density matrix=1.00D-06.
 Requested convergence on             energy=1.00D-06.
 No special actions if energy rises.
 FoFCou: FMM=F IPFlag=           0 FMFlag=           0 FMFlg1=           0
         NFxFlg=           0 DoJE=F BraDBF=F KetDBF=F FulRan=T
         wScrn=  0.000000 ICntrl=     600 IOpCl=  0 I1Cent=           0 NGrid=           0
         NMat0=    1 NMatS0=    325 NMatT0=    0 NMatD0=    1 NMtDS0=    0 NMtDT0=    0
 Petite list used in FoFCou.
 Integral accuracy reduced to 1.0D-05 until final iterations.

 Cycle   1  Pass 0  IDiag  1:
 E= -76.3422189698653    
 DIIS: error= 7.48D-02 at cycle   1 NSaved=   1.
 NSaved= 1 IEnMin= 1 EnMin= -76.3422189698653     IErMin= 1 ErrMin= 7.48D-02
 ErrMax= 7.48D-02  0.00D+00 EMaxC= 1.00D-01 BMatC= 1.04D-01 BMatP= 1.04D-01
 IDIUse=3 WtCom= 2.52D-01 WtEn= 7.48D-01
 Coeff-Com:  0.100D+01
 Coeff-En:   0.100D+01
 Coeff:      0.100D+01
 Gap=     0.214 Goal=   None    Shift=    0.000
 GapD=    0.214 DampG=1.000 DampE=0.500 DampFc=0.5000 IDamp=-1.
 Damping current iteration by 5.00D-01
 RMSDP=2.23D-02 MaxDP=2.30D-01              OVMax= 2.02D-01

 Cycle   2  Pass 0  IDiag  1:
 E= -76.3684699370272     Delta-E=       -0.026250967162 Rises=F Damp=T
 DIIS: error= 1.84D-02 at cycle   2 NSaved=   2.
 NSaved= 2 IEnMin= 2 EnMin= -76.3684699370272     IErMin= 2 ErrMin= 1.84D-02
 ErrMax= 1.84D-02  0.00D+00 EMaxC= 1.00D-01 BMatC= 6.51D-03 BMatP= 1.04D-01
 IDIUse=3 WtCom= 8.16D-01 WtEn= 1.84D-01
 Coeff-Com:  0.186D+00 0.814D+00
 Coeff-En:   0.303D+00 0.697D+00
 Coeff:      0.207D+00 0.793D+00
 Gap=     0.344 Goal=   None    Shift=    0.000
 RMSDP=2.68D-03 MaxDP=3.81D-02 DE=-2.63D-02 OVMax= 1.14D-01

 Cycle   3  Pass 0  IDiag  1:
 E= -76.4196058477020     Delta-E=       -0.051135910675 Rises=F Damp=F
 DIIS: error= 2.96D-03 at cycle   3 NSaved=   3.
 NSaved= 3 IEnMin= 3 EnMin= -76.4196058477020     IErMin= 3 ErrMin= 2.96D-03
 ErrMax= 2.96D-03  0.00D+00 EMaxC= 1.00D-01 BMatC= 1.94D-04 BMatP= 6.51D-03
 IDIUse=3 WtCom= 9.70D-01 WtEn= 2.96D-02
 Coeff-Com:  0.348D-01-0.288D-01 0.994D+00
 Coeff-En:   0.000D+00 0.000D+00 0.100D+01
 Coeff:      0.338D-01-0.279D-01 0.994D+00
 Gap=     0.357 Goal=   None    Shift=    0.000
 RMSDP=3.40D-04 MaxDP=3.74D-03 DE=-5.11D-02 OVMax= 3.06D-03

 Cycle   4  Pass 0  IDiag  1:
 E= -76.4197340765961     Delta-E=       -0.000128228894 Rises=F Damp=F
 DIIS: error= 2.82D-04 at cycle   4 NSaved=   4.
 NSaved= 4 IEnMin= 4 EnMin= -76.4197340765961     IErMin= 4 ErrMin= 2.82D-04
 ErrMax= 2.82D-04  0.00D+00 EMaxC= 1.00D-01 BMatC= 2.01D-06 BMatP= 1.94D-04
 IDIUse=3 WtCom= 9.97D-01 WtEn= 2.82D-03
 Coeff-Com:  0.683D-02-0.192D-01 0.236D+00 0.776D+00
 Coeff-En:   0.000D+00 0.000D+00 0.000D+00 0.100D+01
 Coeff:      0.681D-02-0.191D-01 0.236D+00 0.777D+00
 Gap=     0.357 Goal=   None    Shift=    0.000
 RMSDP=2.66D-05 MaxDP=1.89D-04 DE=-1.28D-04 OVMax= 2.84D-04

 Cycle   5  Pass 0  IDiag  1:
 E= -76.4197355046124     Delta-E=       -0.000001428016 Rises=F Damp=F
 DIIS: error= 5.83D-05 at cycle   5 NSaved=   5.
 NSaved= 5 IEnMin= 5 EnMin= -76.4197355046124     IErMin= 5 ErrMin= 5.83D-05
 ErrMax= 5.83D-05  0.00D+00 EMaxC= 1.00D-01 BMatC= 5.84D-08 BMatP= 2.01D-06
 IDIUse=1 WtCom= 1.00D+00 WtEn= 0.00D+00
 Coeff-Com:  0.766D-03-0.847D-03 0.487D-02 0.180D-01 0.977D+00
 Coeff:      0.766D-03-0.847D-03 0.487D-02 0.180D-01 0.977D+00
 Gap=     0.357 Goal=   None    Shift=    0.000
 RMSDP=7.03D-06 MaxDP=8.47D-05 DE=-1.43D-06 OVMax= 5.69D-05

 Initial convergence to 1.0D-05 achieved.  Increase integral accuracy.
 Cycle   6  Pass 1  IDiag  1:
 E= -76.4197366179974     Delta-E=       -0.000001113385 Rises=F Damp=F
 DIIS: error= 2.26D-06 at cycle   1 NSaved=   1.
 NSaved= 1 IEnMin= 1 EnMin= -76.4197366179974     IErMin= 1 ErrMin= 2.26D-06
 ErrMax= 2.26D-06  0.00D+00 EMaxC= 1.00D-01 BMatC= 8.94D-11 BMatP= 8.94D-11
 IDIUse=1 WtCom= 1.00D+00 WtEn= 0.00D+00
 Coeff-Com:  0.100D+01
 Coeff:      0.100D+01
 Gap=     0.357 Goal=   None    Shift=    0.000
 RMSDP=7.03D-06 MaxDP=8.47D-05 DE=-1.11D-06 OVMax= 5.14D-06

 Cycle   7  Pass 1  IDiag  1:
 E= -76.4197366180386     Delta-E=       -0.000000000041 Rises=F Damp=F
 DIIS: error= 1.67D-06 at cycle   2 NSaved=   2.
 NSaved= 2 IEnMin= 2 EnMin= -76.4197366180386     IErMin= 2 ErrMin= 1.67D-06
 ErrMax= 1.67D-06  0.00D+00 EMaxC= 1.00D-01 BMatC= 5.78D-11 BMatP= 8.94D-11
 IDIUse=1 WtCom= 1.00D+00 WtEn= 0.00D+00
 Coeff-Com:  0.427D+00 0.573D+00
 Coeff:      0.427D+00 0.573D+00
 Gap=     0.357 Goal=   None    Shift=    0.000
 RMSDP=2.63D-07 MaxDP=2.50D-06 DE=-4.12D-11 OVMax= 2.55D-06

 Cycle   8  Pass 1  IDiag  1:
 E= -76.4197366180727     Delta-E=       -0.000000000034 Rises=F Damp=F
 DIIS: error= 7.44D-07 at cycle   3 NSaved=   3.
 NSaved= 3 IEnMin= 3 EnMin= -76.4197366180727     IErMin= 3 ErrMin= 7.44D-07
 ErrMax= 7.44D-07  0.00D+00 EMaxC= 1.00D-01 BMatC= 8.44D-12 BMatP= 5.78D-11
 IDIUse=1 WtCom= 1.00D+00 WtEn= 0.00D+00
 Coeff-Com: -0.176D-01 0.271D+00 0.746D+00
 Coeff:     -0.176D-01 0.271D+00 0.746D+00
 Gap=     0.357 Goal=   None    Shift=    0.000
 RMSDP=7.49D-08 MaxDP=7.91D-07 DE=-3.40D-11 OVMax= 6.66D-07

 Cycle   9  Pass 1  IDiag  1:
 E= -76.4197366180786     Delta-E=       -0.000000000006 Rises=F Damp=F
 DIIS: error= 3.20D-08 at cycle   4 NSaved=   4.
 NSaved= 4 IEnMin= 4 EnMin= -76.4197366180786     IErMin= 4 ErrMin= 3.20D-08
 ErrMax= 3.20D-08  0.00D+00 EMaxC= 1.00D-01 BMatC= 2.06D-14 BMatP= 8.44D-12
 IDIUse=1 WtCom= 1.00D+00 WtEn= 0.00D+00
 Coeff-Com: -0.725D-02 0.583D-01 0.177D+00 0.772D+00
 Coeff:     -0.725D-02 0.583D-01 0.177D+00 0.772D+00
 Gap=     0.357 Goal=   None    Shift=    0.000
 RMSDP=2.98D-09 MaxDP=1.63D-08 DE=-5.97D-12 OVMax= 3.13D-08

 SCF Done:  E(RB3LYP) =  -76.4197366181     A.U. after    9 cycles
            NFock=  9  Conv=0.30D-08     -V/T= 2.0078
 KE= 7.582670557013D+01 PE=-1.988517905492D+02 EE= 3.748501387393D+01
 Leave Link  502 at Wed Apr 17 14:10:57 2019, MaxMem=  2147483648 cpu:        29.0
 (Enter /software/sse/easybuild/prefix/software/Gaussian/09.E.01-avx-nsc1-bdist/g09/l801.exe)
 DoSCS=F DFT=T ScalE2(SS,OS)=  1.000000  1.000000
 Range of M.O.s used for correlation:     1    25
 NBasis=    25 NAE=     5 NBE=     5 NFC=     0 NFV=     0
 NROrb=     25 NOA=     5 NOB=     5 NVA=    20 NVB=    20
 Leave Link  801 at Wed Apr 17 14:10:57 2019, MaxMem=  2147483648 cpu:         0.2
 (Enter /software/sse/easybuild/prefix/software/Gaussian/09.E.01-avx-nsc1-bdist/g09/l1101.exe)
 Using compressed storage, NAtomX=     3.
 Will process      4 centers per pass.
 Leave Link 1101 at Wed Apr 17 14:10:57 2019, MaxMem=  2147483648 cpu:         6.4
 (Enter /software/sse/easybuild/prefix/software/Gaussian/09.E.01-avx-nsc1-bdist/g09/l1102.exe)
 Symmetrizing basis deriv contribution to polar:
 IMax=3 JMax=2 DiffMx= 0.00D+00
 Leave Link 1102 at Wed Apr 17 14:10:57 2019, MaxMem=  2147483648 cpu:         0.9
 (Enter /software/sse/easybuild/prefix/software/Gaussian/09.E.01-avx-nsc1-bdist/g09/l1110.exe)
 Forming Gx(P) for the SCF density, NAtomX=     3.
 Integral derivatives from FoFJK, PRISM(SPDF).
 Do as many integral derivatives as possible in FoFJK.
 G2DrvN: MDV=    2147483520.
 G2DrvN: will do     4 centers at a time, making    1 passes.
 Calling FoFCou, ICntrl=  3107 FMM=F I1Cent=   0 AccDes= 0.00D+00.
 FoFJK:  IHMeth= 1 ICntrl=    3107 DoSepK=F KAlg= 0 I1Cent=   0 FoldK=F
 IRaf=         0 NMat=   1 IRICut=       1 DoRegI=T DoRafI=F ISym2E= 1.
 FoFCou: FMM=F IPFlag=           0 FMFlag=      100000 FMFlg1=           0
         NFxFlg=           0 DoJE=F BraDBF=F KetDBF=F FulRan=T
         wScrn=  0.000000 ICntrl=    3107 IOpCl=  0 I1Cent=           0 NGrid=           0
         NMat0=    1 NMatS0=      1 NMatT0=    0 NMatD0=    1 NMtDS0=    0 NMtDT0=    0
 Petite list used in FoFCou.
 End of G2Drv F.D. properties file   721 does not exist.
 End of G2Drv F.D. properties file   722 does not exist.
 End of G2Drv F.D. properties file   788 does not exist.
 Leave Link 1110 at Wed Apr 17 14:10:58 2019, MaxMem=  2147483648 cpu:         7.6
 (Enter /software/sse/easybuild/prefix/software/Gaussian/09.E.01-avx-nsc1-bdist/g09/l1002.exe)
 Minotr:  Closed shell wavefunction.
          IDoAtm=111
          Direct CPHF calculation.
          Differentiating once with respect to electric field.
                with respect to dipole field.
          Differentiating once with respect to nuclear coordinates.
          Using symmetry in CPHF.
          Requested convergence is 1.0D-08 RMS, and 1.0D-07 maximum.
          Secondary convergence is 1.0D-12 RMS, and 1.0D-12 maximum.
          NewPWx=T KeepS1=F KeepF1=F KeepIn=T MapXYZ=F SortEE=F KeepMc=T.
          MDV=    2147483589 using IRadAn=       2.
 Generate precomputed XC quadrature information.
 Keep R1 ints in memory in symmetry-blocked form, NReq=913415.
 FoFCou: FMM=F IPFlag=           0 FMFlag=           0 FMFlg1=           0
         NFxFlg=           0 DoJE=F BraDBF=F KetDBF=F FulRan=T
         wScrn=  0.000000 ICntrl=     600 IOpCl=  0 I1Cent=           0 NGrid=           0
         NMat0=    1 NMatS0=    325 NMatT0=    0 NMatD0=    1 NMtDS0=    0 NMtDT0=    0
 Petite list used in FoFCou.
          Solving linear equations simultaneously, MaxMat=       0.
          There are     9 degrees of freedom in the 1st order CPHF.  IDoFFX=4 NUNeed=     9.
      9 vectors produced by pass  0 Test12= 1.11D-15 1.11D-08 XBig12= 3.34D+00 1.28D+00.
 AX will form     9 AO Fock derivatives at one time.
      9 vectors produced by pass  1 Test12= 1.11D-15 1.11D-08 XBig12= 3.93D-01 3.17D-01.
      9 vectors produced by pass  2 Test12= 1.11D-15 1.11D-08 XBig12= 3.68D-03 3.03D-02.
      9 vectors produced by pass  3 Test12= 1.11D-15 1.11D-08 XBig12= 5.36D-06 9.23D-04.
      7 vectors produced by pass  4 Test12= 1.11D-15 1.11D-08 XBig12= 5.38D-09 2.76D-05.
      4 vectors produced by pass  5 Test12= 1.11D-15 1.11D-08 XBig12= 2.02D-12 6.03D-07.
      1 vectors produced by pass  6 Test12= 1.11D-15 1.11D-08 XBig12= 6.12D-16 1.35D-08.
 InvSVY:  IOpt=1 It=  1 EMax= 2.22D-16
 Solved reduced A of dimension    48 with     9 vectors.
 FullF1:  Do perturbations    1 to     9.
 Isotropic polarizability for W=    0.000000        5.35 Bohr**3.
 End of Minotr F.D. properties file   721 does not exist.
 End of Minotr F.D. properties file   722 does not exist.
 End of Minotr F.D. properties file   788 does not exist.
 Leave Link 1002 at Wed Apr 17 14:10:59 2019, MaxMem=  2147483648 cpu:        19.9
 (Enter /software/sse/easybuild/prefix/software/Gaussian/09.E.01-avx-nsc1-bdist/g09/l601.exe)
 Copying SCF densities to generalized density rwf, IOpCl= 0 IROHF=0.

 **********************************************************************

            Population analysis using the SCF density.

 **********************************************************************

 Orbital symmetries:
       Occupied  (A1) (A1) (B2) (A1) (B1)
       Virtual   (A1) (B2) (B2) (A1) (B1) (A1) (B2) (A1) (A2) (A1)
                 (B1) (A1) (B2) (B2) (A2) (B1) (A1) (A1) (B2) (A1)
 The electronic state is 1-A1.
 Alpha  occ. eigenvalues --  -19.13799  -0.99735  -0.51503  -0.37102  -0.29197
 Alpha virt. eigenvalues --    0.06537   0.15126   0.75690   0.80556   0.89135
 Alpha virt. eigenvalues --    0.89354   1.01557   1.17538   1.52951   1.53770
 Alpha virt. eigenvalues --    1.64365   2.23882   2.26828   2.45027   2.64113
 Alpha virt. eigenvalues --    2.66684   3.02803   3.30737   3.53163   3.69299
          Condensed to atoms (all electrons):
               1          2          3
     1  O    8.041880   0.283983   0.283983
     2  H    0.283983   0.439567  -0.028474
     3  H    0.283983  -0.028474   0.439567
 Mulliken charges:
               1
     1  O   -0.609847
     2  H    0.304924
     3  H    0.304924
 Sum of Mulliken charges =   0.00000
 Mulliken charges with hydrogens summed into heavy atoms:
               1
     1  O    0.000000
 APT charges:
               1
     1  O   -0.481633
     2  H    0.240816
     3  H    0.240816
 Sum of APT charges =   0.00000
 APT charges with hydrogens summed into heavy atoms:
               1
     1  O    0.000000
 Electronic spatial extent (au):  <R**2>=             19.0909
 Charge=              0.0000 electrons
 Dipole moment (field-independent basis, Debye):
    X=             -0.0000    Y=              0.0000    Z=             -2.0428  Tot=              2.0428
 Quadrupole moment (field-independent basis, Debye-Ang):
   XX=             -7.1376   YY=             -4.2969   ZZ=             -5.9758
   XY=              0.0000   XZ=              0.0000   YZ=              0.0000
 Traceless Quadrupole moment (field-independent basis, Debye-Ang):
   XX=             -1.3341   YY=              1.5065   ZZ=             -0.1724
   XY=              0.0000   XZ=              0.0000   YZ=              0.0000
 Octapole moment (field-independent basis, Debye-Ang**2):
  XXX=              0.0000  YYY=             -0.0000  ZZZ=             -1.1613  XYY=             -0.0000
  XXY=             -0.0000  XXZ=             -0.2979  XZZ=              0.0000  YZZ=              0.0000
  YYZ=             -1.1939  XYZ=             -0.0000
 Hexadecapole moment (field-independent basis, Debye-Ang**3):
 XXXX=             -5.1251 YYYY=             -6.1218 ZZZZ=             -6.2899 XXXY=             -0.0000
 XXXZ=             -0.0000 YYYX=             -0.0000 YYYZ=              0.0000 ZZZX=             -0.0000
 ZZZY=              0.0000 XXYY=             -2.1265 XXZZ=             -1.9555 YYZZ=             -1.7370
 XXYZ=              0.0000 YYXZ=              0.0000 ZZXY=             -0.0000
 N-N= 9.120334487018D+00 E-N=-1.988517901775D+02  KE= 7.582670557013D+01
 Symmetry A1   KE= 6.767621550482D+01
 Symmetry A2   KE= 4.113296879450D-35
 Symmetry B1   KE= 4.592869123204D+00
 Symmetry B2   KE= 3.557620942100D+00
  Exact polarizability:   2.994  -0.000   7.508  -0.000   0.000   5.558
 Approx polarizability:   3.295   0.000   9.174   0.000   0.000   6.978
 No NMR shielding tensors so no spin-rotation constants.
 Leave Link  601 at Wed Apr 17 14:11:00 2019, MaxMem=  2147483648 cpu:         7.1
 (Enter /software/sse/easybuild/prefix/software/Gaussian/09.E.01-avx-nsc1-bdist/g09/l701.exe)
 Compute integral second derivatives.
 ... and contract with generalized density number  0.
 Leave Link  701 at Wed Apr 17 14:11:01 2019, MaxMem=  2147483648 cpu:         5.5
 (Enter /software/sse/easybuild/prefix/software/Gaussian/09.E.01-avx-nsc1-bdist/g09/l702.exe)
 L702 exits ... SP integral derivatives will be done elsewhere.
 Leave Link  702 at Wed Apr 17 14:11:01 2019, MaxMem=  2147483648 cpu:         0.2
 (Enter /software/sse/easybuild/prefix/software/Gaussian/09.E.01-avx-nsc1-bdist/g09/l703.exe)
 Compute integral second derivatives, UseDBF=F ICtDFT=           0.
 Integral derivatives from FoFJK, PRISM(SPDF).
 Calling FoFJK, ICntrl=    100127 FMM=F ISym2X=1 I1Cent= 0 IOpClX= 0 NMat=1 NMatS=1 NMatT=0.
 FoFJK:  IHMeth= 1 ICntrl=  100127 DoSepK=F KAlg= 0 I1Cent=   0 FoldK=F
 IRaf=         0 NMat=   1 IRICut=       1 DoRegI=T DoRafI=F ISym2E= 1.
 FoFCou: FMM=F IPFlag=           0 FMFlag=      100000 FMFlg1=         800
         NFxFlg=           0 DoJE=F BraDBF=F KetDBF=F FulRan=T
         wScrn=  0.000000 ICntrl=  100127 IOpCl=  0 I1Cent=           0 NGrid=           0
         NMat0=    1 NMatS0=      1 NMatT0=    0 NMatD0=    1 NMtDS0=    0 NMtDT0=    0
 Petite list used in FoFCou.
 Leave Link  703 at Wed Apr 17 14:11:02 2019, MaxMem=  2147483648 cpu:         9.1
 (Enter /software/sse/easybuild/prefix/software/Gaussian/09.E.01-avx-nsc1-bdist/g09/l716.exe)
 Dipole        =-4.96555310D-17-7.76288755D-17-8.03707914D-01
 Polarizability= 2.99367743D+00-3.27238872D-11 7.50847151D+00
                -8.50985710D-11 4.48000474D-10 5.55797392D+00
 Full mass-weighted force constant matrix:
 Low frequencies ---  -62.0010  -60.6285  -38.5410   -0.0020   -0.0018   -0.0017
 Low frequencies --- 1664.9640 3800.9597 3914.2459
 Diagonal vibrational polarizability:
        0.0000000       0.0355520       0.6859903
 Harmonic frequencies (cm**-1), IR intensities (KM/Mole), Raman scattering
 activities (A**4/AMU), depolarization ratios for plane and unpolarized
 incident light, reduced masses (AMU), force constants (mDyne/A),
 and normal coordinates:
                      1                      2                      3
                     A1                     A1                     B2
 Frequencies --   1664.9640              3800.9597              3914.2459
 Red. masses --      1.0827                 1.0452                 1.0811
 Frc consts  --      1.7683                 8.8966                 9.7592
 IR Inten    --     70.3480                 1.6440                20.2408
  Atom  AN      X      Y      Z        X      Y      Z        X      Y      Z
     1   8    -0.00  -0.00  -0.07     0.00   0.00   0.05    -0.00  -0.07   0.00
     2   1     0.00   0.43   0.56     0.00   0.58  -0.40     0.00   0.55  -0.44
     3   1     0.00  -0.43   0.56    -0.00  -0.58  -0.40     0.00   0.55   0.44

 -------------------
 - Thermochemistry -
 -------------------
 Temperature   298.150 Kelvin.  Pressure   1.00000 Atm.
 Atom     1 has atomic number  8 and mass  15.99491
 Atom     2 has atomic number  1 and mass   1.00783
 Atom     3 has atomic number  1 and mass   1.00783
 Molecular mass:    18.01056 amu.
 Principal axes and moments of inertia in atomic units:
                           1         2         3
     Eigenvalues --     2.27026   4.14977   6.42003
           X            0.00000   0.00000   1.00000
           Y            1.00000   0.00000   0.00000
           Z            0.00000   1.00000   0.00000
 This molecule is an asymmetric top.
 Rotational symmetry number  2.
 Rotational temperatures (Kelvin)     38.15151    20.87197    13.49119
 Rotational constants (GHZ):         794.94938   434.90187   281.11121
 Zero-point vibrational energy      56105.9 (Joules/Mol)
                                   13.40963 (Kcal/Mol)
 Vibrational temperatures:   2395.51  5468.73  5631.72
          (Kelvin)
 
 Zero-point correction=                           0.021370 (Hartree/Particle)
 Thermal correction to Energy=                    0.024205
 Thermal correction to Enthalpy=                  0.025149
 Thermal correction to Gibbs Free Energy=         0.003713
 Sum of electronic and zero-point Energies=            -76.398367
 Sum of electronic and thermal Energies=               -76.395532
 Sum of electronic and thermal Enthalpies=             -76.394588
 Sum of electronic and thermal Free Energies=          -76.416024
 
                     E (Thermal)             CV                S
                      KCal/Mol        Cal/Mol-Kelvin    Cal/Mol-Kelvin
 Total                   15.189              6.003             45.116
 Electronic               0.000              0.000              0.000
 Translational            0.889              2.981             34.608
 Rotational               0.889              2.981             10.502
 Vibrational             13.411              0.042              0.006
                       Q            Log10(Q)             Ln(Q)
 Total Bot       0.195979D-01         -1.707791         -3.932333
 Total V=0       0.132288D+09          8.121521         18.700494
 Vib (Bot)       0.148193D-09         -9.829171        -22.632503
 Vib (V=0)       0.100032D+01          0.000141          0.000324
 Electronic      0.100000D+01          0.000000          0.000000
 Translational   0.300432D+07          6.477746         14.915562
 Rotational      0.440184D+02          1.643634          3.784608
                           ----------------------------
                           ! Normal Mode     1        !
 --------------------------                            --------------------------
 ! Name  Definition              Value          Relative Weight (%)             !
 --------------------------------------------------------------------------------
 ! R1    R(1,2)                 -0.0533                  5.7                    !
 ! R2    R(1,3)                 -0.0533                  5.7                    !
 ! A1    A(2,1,3)                0.8343                 88.7                    !
 --------------------------------------------------------------------------------
                           ----------------------------
                           ! Normal Mode     2        !
 --------------------------                            --------------------------
 ! Name  Definition              Value          Relative Weight (%)             !
 --------------------------------------------------------------------------------
 ! R1    R(1,2)                  0.7353                 49.6                    !
 ! R2    R(1,3)                  0.7353                 49.6                    !
 --------------------------------------------------------------------------------
                           ----------------------------
                           ! Normal Mode     3        !
 --------------------------                            --------------------------
 ! Name  Definition              Value          Relative Weight (%)             !
 --------------------------------------------------------------------------------
 ! R1    R(1,2)                  0.7604                 50.0                    !
 ! R2    R(1,3)                 -0.7604                 50.0                    !
 --------------------------------------------------------------------------------
 
                                                         Title Card Required
                                                             IR Spectrum
 
     3   3                                                                    1                                                      
     9   8                                                                    6                                                      
     1   0                                                                    6                                                      
     4   1                                                                    5                                                      
 
     X   X                                                                    X                                                      
     X                                                                        X                                                      
     X                                                                        X                                                      
     X                                                                        X                                                      
     X                                                                        X                                                      
     X                                                                        X                                                      
                                                                              X                                                      
                                                                              X                                                      
                                                                              X                                                      
                                                                              X                                                      
                                                                              X                                                      
                                                                              X                                                      
                                                                              X                                                      
                                                                              X                                                      
                                                                              X                                                      
                                                                              X                                                      
                                                                              X                                                      
                                                                              X                                                      
                                                                              X                                                      
                                                                              X                                                      
 
 ***** Axes restored to original set *****
 -------------------------------------------------------------------
 Center     Atomic                   Forces (Hartrees/Bohr)
 Number     Number              X              Y              Z
 -------------------------------------------------------------------
      1        8          -0.000000000    0.000000000    0.000125584
      2        1          -0.000000000    0.000076255   -0.000062792
      3        1           0.000000000   -0.000076255   -0.000062792
 -------------------------------------------------------------------
 Cartesian Forces:  Max     0.000125584 RMS     0.000062616
 Force constants in Cartesian coordinates: 
                1             2             3             4             5 
      1 -0.249009D-03
      2  0.000000D+00  0.670746D+00
      3  0.000000D+00  0.000000D+00  0.457326D+00
      4  0.124505D-03  0.000000D+00  0.000000D+00 -0.135559D-03
      5  0.000000D+00 -0.335373D+00  0.198895D+00  0.000000D+00  0.367318D+00
      6  0.000000D+00  0.263318D+00 -0.228663D+00  0.000000D+00 -0.231107D+00
      7  0.124505D-03  0.000000D+00  0.000000D+00  0.110545D-04  0.000000D+00
      8  0.000000D+00 -0.335373D+00 -0.198895D+00  0.000000D+00 -0.319452D-01
      9  0.000000D+00 -0.263318D+00 -0.228663D+00  0.000000D+00  0.322116D-01
                6             7             8             9 
      6  0.217660D+00
      7  0.000000D+00 -0.135559D-03
      8 -0.322116D-01  0.000000D+00  0.367318D+00
      9  0.110029D-01  0.000000D+00  0.231107D+00  0.217660D+00
 FormGI is forming the generalized inverse of G from B-inverse, IUseBI=4.
 Force constants in internal coordinates: 
                1             2             3 
      1  0.534735D+00
      2 -0.730537D-02  0.534735D+00
      3  0.324674D-01  0.324674D-01  0.167266D+00
 Leave Link  716 at Wed Apr 17 14:11:02 2019, MaxMem=  2147483648 cpu:         5.4
 (Enter /software/sse/easybuild/prefix/software/Gaussian/09.E.01-avx-nsc1-bdist/g09/l103.exe)

 GradGradGradGradGradGradGradGradGradGradGradGradGradGradGradGradGradGrad
 Berny optimization.
 Red2BG is reusing G-inverse.
 Internal  Forces:  Max     0.000098754 RMS     0.000080669
 Search for a local minimum.
 Step number   1 out of a maximum of    2
 All quantities printed in internal units (Hartrees-Bohrs-Radians)
 Second derivative matrix not updated -- analytic derivatives used.
 The second derivative matrix:
                          R1        R2        A1
           R1           0.53474
           R2          -0.00731   0.53474
           A1           0.03247   0.03247   0.16727
 ITU=  0
     Eigenvalues ---    0.16150   0.53319   0.54204
 Angle between quadratic step and forces=  18.41 degrees.
 Linear search not attempted -- first point.
 Iteration  1 RMS(Cart)=  0.00011933 RMS(Int)=  0.00000001
 Iteration  2 RMS(Cart)=  0.00000001 RMS(Int)=  0.00000000
 ITry= 1 IFail=0 DXMaxC= 1.28D-04 DCOld= 1.00D+10 DXMaxT= 3.00D-01 DXLimC= 3.00D+00 Rises=F
 ClnCor:  largest displacement from symmetrization is 3.71D-15 for atom     3.
 Variable       Old X    -DE/DX   Delta X   Delta X   Delta X     New X
                                 (Linear)    (Quad)   (Total)
    R1        1.82401   0.00010   0.00000   0.00019   0.00019   1.82421
    R2        1.82401   0.00010   0.00000   0.00019   0.00019   1.82421
    A1        1.81070  -0.00000   0.00000  -0.00010  -0.00010   1.81060
         Item               Value     Threshold  Converged?
 Maximum Force            0.000099     0.000450     YES
 RMS     Force            0.000081     0.000300     YES
 Maximum Displacement     0.000128     0.001800     YES
 RMS     Displacement     0.000119     0.001200     YES
 Predicted change in Energy=-1.931183D-08
 Optimization completed.
    -- Stationary point found.
                           ----------------------------
                           !   Optimized Parameters   !
                           ! (Angstroms and Degrees)  !
 --------------------------                            --------------------------
 ! Name  Definition              Value          Derivative Info.                !
 --------------------------------------------------------------------------------
 ! R1    R(1,2)                  0.9652         -DE/DX =    0.0001              !
 ! R2    R(1,3)                  0.9652         -DE/DX =    0.0001              !
 ! A1    A(2,1,3)              103.7453         -DE/DX =    0.0                 !
 --------------------------------------------------------------------------------
 GradGradGradGradGradGradGradGradGradGradGradGradGradGradGradGradGradGrad

 Leave Link  103 at Wed Apr 17 14:11:02 2019, MaxMem=  2147483648 cpu:         3.4
 (Enter /software/sse/easybuild/prefix/software/Gaussian/09.E.01-avx-nsc1-bdist/g09/l9999.exe)

 Test job not archived.
 1\1\NSC-N275\Freq\RB3LYP\6-31G(d,p)\H2O1\X_MASKA\17-Apr-2019\0\\#p fre
 q=intmodes b3lyp/6-31g(d,p) Iop(7/32=5)\\Title Card Required\\0,1\O,0.
 ,0.,0.119188\H,0.,0.759286,-0.476754\H,0.,-0.759286,-0.476754\\Version
 =ES64L-G09RevE.01\State=1-A1\HF=-76.4197366\RMSD=2.983e-09\RMSF=6.262e
 -05\ZeroPoint=0.0213696\Thermal=0.0242046\Dipole=0.,0.,-0.8037079\Dipo
 leDeriv=-0.7136676,0.,0.,0.,-0.4073497,0.,0.,0.,-0.323881,0.3568338,0.
 ,0.,0.,0.2036749,0.0876521,0.,0.1201957,0.1619405,0.3568338,0.,0.,0.,0
 .2036749,-0.0876521,0.,-0.1201957,0.1619405\Polar=2.9936774,0.,7.50847
 15,0.,0.,5.5579739\PG=C02V [C2(O1),SGV(H2)]\NImag=0\\-0.00024901,0.,0.
 67074574,0.,0.,0.45732563,0.00012450,0.,0.,-0.00013556,0.,-0.33537287,
 0.19889526,0.,0.36731804,0.,0.26331839,-0.22866282,0.,-0.23110682,0.21
 765994,0.00012450,0.,0.,0.00001105,0.,0.,-0.00013556,0.,-0.33537287,-0
 .19889526,0.,-0.03194517,-0.03221156,0.,0.36731804,0.,-0.26331839,-0.2
 2866282,0.,0.03221156,0.01100288,0.,0.23110682,0.21765994\\0.,0.,-0.00
 012558,0.,-0.00007625,0.00006279,0.,0.00007625,0.00006279\\\@


 The earth never tires,
 The earth is rude, silent, incomprehensible at first,
 Nature is rude and incomprehensible at first,
 Be not discouraged, keep on,
 There are divine things well envelop'd,
 I swear to you there are divine things more beautiful than words can tell.
                                 -- Walt Whitman
 Job cpu time:       0 days  0 hours  2 minutes 11.1 seconds.
 File lengths (MBytes):  RWF=      5 Int=      0 D2E=      0 Chk=      1 Scr=      1
 Normal termination of Gaussian 09 at Wed Apr 17 14:11:03 2019.

=== POST-JOB OUTPUT FROM THE NSC g09 WRAPPER ===
Gaussian calculation successful!
==============================================

