
===
=== NSC g09 WRAPPER, version: 1.0
===
=== This invokation of Gaussian is made via an NSC wrapper script
=== with the primary purpose of adjusting parallelization settings
=== and to discover input errors. The bare Gaussian binary is available
=== with the suffix '.orig'
===
=== NSC g09 WRAPPER: Running Gaussian in stdin mode
 Entering Gaussian System, Link 0=/software/sse/easybuild/prefix/software/Gaussian/09.E.01-avx-nsc1-bdist/g09/g09.orig
 Initial command:
 /software/sse/easybuild/prefix/software/Gaussian/09.E.01-avx-nsc1-bdist/g09/l1.exe "/scratch/local/Gau-392762.inp" -scrdir="/scratch/local/"
 Entering Link 1 = /software/sse/easybuild/prefix/software/Gaussian/09.E.01-avx-nsc1-bdist/g09/l1.exe PID=    392768.
  
 Copyright (c) 1988,1990,1992,1993,1995,1998,2003,2009,2015,
            Gaussian, Inc.  All Rights Reserved.
  
 This is part of the Gaussian(R) 09 program.  It is based on
 the Gaussian(R) 03 system (copyright 2003, Gaussian, Inc.),
 the Gaussian(R) 98 system (copyright 1998, Gaussian, Inc.),
 the Gaussian(R) 94 system (copyright 1995, Gaussian, Inc.),
 the Gaussian 92(TM) system (copyright 1992, Gaussian, Inc.),
 the Gaussian 90(TM) system (copyright 1990, Gaussian, Inc.),
 the Gaussian 88(TM) system (copyright 1988, Gaussian, Inc.),
 the Gaussian 86(TM) system (copyright 1986, Carnegie Mellon
 University), and the Gaussian 82(TM) system (copyright 1983,
 Carnegie Mellon University). Gaussian is a federally registered
 trademark of Gaussian, Inc.
  
 This software contains proprietary and confidential information,
 including trade secrets, belonging to Gaussian, Inc.
  
 This software is provided under written license and may be
 used, copied, transmitted, or stored only in accord with that
 written license.
  
 The following legend is applicable only to US Government
 contracts under FAR:
  
                    RESTRICTED RIGHTS LEGEND
  
 Use, reproduction and disclosure by the US Government is
 subject to restrictions as set forth in subparagraphs (a)
 and (c) of the Commercial Computer Software - Restricted
 Rights clause in FAR 52.227-19.
  
 Gaussian, Inc.
 340 Quinnipiac St., Bldg. 40, Wallingford CT 06492
  
  
 ---------------------------------------------------------------
 Warning -- This program may not be used in any manner that
 competes with the business of Gaussian, Inc. or will provide
 assistance to any competitor of Gaussian, Inc.  The licensee
 of this program is prohibited from giving any competitor of
 Gaussian, Inc. access to this program.  By using this program,
 the user acknowledges that Gaussian, Inc. is engaged in the
 business of creating and licensing software in the field of
 computational chemistry and represents and warrants to the
 licensee that it is not a competitor of Gaussian, Inc. and that
 it will not use this program in any manner prohibited above.
 ---------------------------------------------------------------
  

 Cite this work as:
 Gaussian 09, Revision E.01,
 M. J. Frisch, G. W. Trucks, H. B. Schlegel, G. E. Scuseria, 
 M. A. Robb, J. R. Cheeseman, G. Scalmani, V. Barone, B. Mennucci, 
 G. A. Petersson, H. Nakatsuji, M. Caricato, X. Li, H. P. Hratchian, 
 A. F. Izmaylov, J. Bloino, G. Zheng, J. L. Sonnenberg, M. Hada, 
 M. Ehara, K. Toyota, R. Fukuda, J. Hasegawa, M. Ishida, T. Nakajima, 
 Y. Honda, O. Kitao, H. Nakai, T. Vreven, J. A. Montgomery, Jr., 
 J. E. Peralta, F. Ogliaro, M. Bearpark, J. J. Heyd, E. Brothers, 
 K. N. Kudin, V. N. Staroverov, T. Keith, R. Kobayashi, J. Normand, 
 K. Raghavachari, A. Rendell, J. C. Burant, S. S. Iyengar, J. Tomasi, 
 M. Cossi, N. Rega, J. M. Millam, M. Klene, J. E. Knox, J. B. Cross, 
 V. Bakken, C. Adamo, J. Jaramillo, R. Gomperts, R. E. Stratmann, 
 O. Yazyev, A. J. Austin, R. Cammi, C. Pomelli, J. W. Ochterski, 
 R. L. Martin, K. Morokuma, V. G. Zakrzewski, G. A. Voth, 
 P. Salvador, J. J. Dannenberg, S. Dapprich, A. D. Daniels, 
 O. Farkas, J. B. Foresman, J. V. Ortiz, J. Cioslowski, 
 and D. J. Fox, Gaussian, Inc., Wallingford CT, 2013.
 
 ******************************************
 Gaussian 09:  ES64L-G09RevE.01 30-Nov-2015
                17-Apr-2019 
 ******************************************
 %nprocshared=16
 Will use up to   16 processors via shared memory.
 %mem=16GB
 %chk=vanadate_peroxide_n1_frq.chk
 ----------------------------------------------------------------------
 #p freq=intmodes b3lyp/6-31G(d,p) empiricaldispersion=gd3 pseudo=read 
 Iop(7/32=5)
 ----------------------------------------------------------------------
 1/10=4,18=20,30=1,38=1/1,3;
 2/9=110,12=2,17=6,18=5,40=1/2;
 3/5=1,6=6,7=101,11=2,16=1,17=8,25=1,30=1,71=2,74=-5,124=31,140=1/1,2,3;
 4//1;
 5/5=2,38=5,98=1/2;
 8/6=4,10=90,11=11/1;
 11/6=1,8=1,9=11,15=111,16=1/1,2,10;
 10/6=1/2;
 6/7=2,8=2,9=2,10=2,18=1,28=1/1;
 7/8=21,10=1,25=1,32=5/1,2,3,16;
 1/10=4,18=20,30=1/3;
 99//99;
 Leave Link    1 at Wed Apr 17 13:11:05 2019, MaxMem=  2147483648 cpu:         0.6
 (Enter /software/sse/easybuild/prefix/software/Gaussian/09.E.01-avx-nsc1-bdist/g09/l101.exe)
 -------------------
 Title Card Required
 -------------------
 Symbolic Z-matrix:
 Charge = -1 Multiplicity = 1
 N                     2.90518  -0.82919   0.13868 
 C                     1.56173  -1.03428   0.21305 
 C                     3.11384   0.5092   -0.16313 
 N                     0.92258   0.08978  -0.02143 
 H                     1.06169  -1.97132   0.40949 
 H                     3.61551  -1.53013   0.27078 
 C                     1.86332   1.06091  -0.25824 
 H                     4.10293   0.92252  -0.28211 
 H                     1.54661   2.06611  -0.48723 
 V                    -1.20762   0.25048   0.06706 
 O                    -1.09438  -1.54436  -0.54189 
 O                    -1.25188   0.65636   1.64552 
 O                    -2.45625  -1.06425  -0.29919 
 O                    -1.26987   1.54132  -0.93246 
 
 NAtoms=     14 NQM=       14 NQMF=       0 NMMI=      0 NMMIF=      0
                NMic=       0 NMicF=      0.
                    Isotopes and Nuclear Properties:
 (Nuclear quadrupole moments (NQMom) in fm**2, nuclear magnetic moments (NMagM)
  in nuclear magnetons)

  Atom         1           2           3           4           5           6           7           8           9          10
 IAtWgt=          14          12          12          14           1           1          12           1           1          51
 AtmWgt=  14.0030740  12.0000000  12.0000000  14.0030740   1.0078250   1.0078250  12.0000000   1.0078250   1.0078250  50.9439625
 NucSpn=           2           0           0           2           1           1           0           1           1           7
 AtZEff=   0.0000000   0.0000000   0.0000000   0.0000000   0.0000000   0.0000000   0.0000000   0.0000000   0.0000000   0.0000000
 NQMom=    2.0440000   0.0000000   0.0000000   2.0440000   0.0000000   0.0000000   0.0000000   0.0000000   0.0000000  -5.2000000
 NMagM=    0.4037610   0.0000000   0.0000000   0.4037610   2.7928460   2.7928460   0.0000000   2.7928460   2.7928460   5.1514000
 AtZNuc=   7.0000000   6.0000000   6.0000000   7.0000000   1.0000000   1.0000000   6.0000000   1.0000000   1.0000000  23.0000000

  Atom        11          12          13          14
 IAtWgt=          16          16          16          16
 AtmWgt=  15.9949146  15.9949146  15.9949146  15.9949146
 NucSpn=           0           0           0           0
 AtZEff=   0.0000000   0.0000000   0.0000000   0.0000000
 NQMom=    0.0000000   0.0000000   0.0000000   0.0000000
 NMagM=    0.0000000   0.0000000   0.0000000   0.0000000
 AtZNuc=   8.0000000   8.0000000   8.0000000   8.0000000
 Leave Link  101 at Wed Apr 17 13:11:05 2019, MaxMem=  2147483648 cpu:         4.4
 (Enter /software/sse/easybuild/prefix/software/Gaussian/09.E.01-avx-nsc1-bdist/g09/l103.exe)

 GradGradGradGradGradGradGradGradGradGradGradGradGradGradGradGradGradGrad
 Berny optimization.
 Initialization pass.
                           ----------------------------
                           !    Initial Parameters    !
                           ! (Angstroms and Degrees)  !
 --------------------------                            --------------------------
 ! Name  Definition              Value          Derivative Info.                !
 --------------------------------------------------------------------------------
 ! R1    R(1,2)                  1.361          calculate D2E/DX2 analytically  !
 ! R2    R(1,3)                  1.3878         calculate D2E/DX2 analytically  !
 ! R3    R(1,6)                  1.0066         calculate D2E/DX2 analytically  !
 ! R4    R(2,4)                  1.3142         calculate D2E/DX2 analytically  !
 ! R5    R(2,5)                  1.0801         calculate D2E/DX2 analytically  !
 ! R6    R(3,7)                  1.3701         calculate D2E/DX2 analytically  !
 ! R7    R(3,8)                  1.0786         calculate D2E/DX2 analytically  !
 ! R8    R(4,7)                  1.3726         calculate D2E/DX2 analytically  !
 ! R9    R(4,10)                 2.1381         calculate D2E/DX2 analytically  !
 ! R10   R(7,9)                  1.0785         calculate D2E/DX2 analytically  !
 ! R11   R(10,11)                1.8987         calculate D2E/DX2 analytically  !
 ! R12   R(10,12)                1.6304         calculate D2E/DX2 analytically  !
 ! R13   R(10,13)                1.8498         calculate D2E/DX2 analytically  !
 ! R14   R(10,14)                1.6338         calculate D2E/DX2 analytically  !
 ! R15   R(11,13)                1.4643         calculate D2E/DX2 analytically  !
 ! A1    A(2,1,3)              107.7953         calculate D2E/DX2 analytically  !
 ! A2    A(2,1,6)              125.7621         calculate D2E/DX2 analytically  !
 ! A3    A(3,1,6)              126.4399         calculate D2E/DX2 analytically  !
 ! A4    A(1,2,4)              109.9644         calculate D2E/DX2 analytically  !
 ! A5    A(1,2,5)              126.7            calculate D2E/DX2 analytically  !
 ! A6    A(4,2,5)              123.3206         calculate D2E/DX2 analytically  !
 ! A7    A(1,3,7)              105.4387         calculate D2E/DX2 analytically  !
 ! A8    A(1,3,8)              122.1034         calculate D2E/DX2 analytically  !
 ! A9    A(7,3,8)              132.4568         calculate D2E/DX2 analytically  !
 ! A10   A(2,4,7)              107.6139         calculate D2E/DX2 analytically  !
 ! A11   A(2,4,10)             122.7839         calculate D2E/DX2 analytically  !
 ! A12   A(7,4,10)             129.5525         calculate D2E/DX2 analytically  !
 ! A13   A(3,7,4)              109.1877         calculate D2E/DX2 analytically  !
 ! A14   A(3,7,9)              131.1524         calculate D2E/DX2 analytically  !
 ! A15   A(4,7,9)              119.6548         calculate D2E/DX2 analytically  !
 ! A16   A(4,10,11)             81.7356         calculate D2E/DX2 analytically  !
 ! A17   A(4,10,12)             94.9231         calculate D2E/DX2 analytically  !
 ! A18   A(4,10,13)            127.6553         calculate D2E/DX2 analytically  !
 ! A19   A(4,10,14)             94.1302         calculate D2E/DX2 analytically  !
 ! A20   A(11,10,12)           123.1918         calculate D2E/DX2 analytically  !
 ! A21   A(11,10,14)           123.569          calculate D2E/DX2 analytically  !
 ! A22   A(12,10,13)           110.5056         calculate D2E/DX2 analytically  !
 ! A23   A(12,10,14)           113.2392         calculate D2E/DX2 analytically  !
 ! A24   A(13,10,14)           114.5013         calculate D2E/DX2 analytically  !
 ! D1    D(3,1,2,4)             -0.0697         calculate D2E/DX2 analytically  !
 ! D2    D(3,1,2,5)            178.5498         calculate D2E/DX2 analytically  !
 ! D3    D(6,1,2,4)           -179.4949         calculate D2E/DX2 analytically  !
 ! D4    D(6,1,2,5)             -0.8754         calculate D2E/DX2 analytically  !
 ! D5    D(2,1,3,7)              0.0271         calculate D2E/DX2 analytically  !
 ! D6    D(2,1,3,8)           -179.6354         calculate D2E/DX2 analytically  !
 ! D7    D(6,1,3,7)            179.4473         calculate D2E/DX2 analytically  !
 ! D8    D(6,1,3,8)             -0.2152         calculate D2E/DX2 analytically  !
 ! D9    D(1,2,4,7)              0.083          calculate D2E/DX2 analytically  !
 ! D10   D(1,2,4,10)          -177.5751         calculate D2E/DX2 analytically  !
 ! D11   D(5,2,4,7)           -178.5924         calculate D2E/DX2 analytically  !
 ! D12   D(5,2,4,10)             3.7495         calculate D2E/DX2 analytically  !
 ! D13   D(1,3,7,4)              0.0224         calculate D2E/DX2 analytically  !
 ! D14   D(1,3,7,9)           -179.1262         calculate D2E/DX2 analytically  !
 ! D15   D(8,3,7,4)            179.635          calculate D2E/DX2 analytically  !
 ! D16   D(8,3,7,9)              0.4863         calculate D2E/DX2 analytically  !
 ! D17   D(2,4,7,3)             -0.0654         calculate D2E/DX2 analytically  !
 ! D18   D(2,4,7,9)            179.197          calculate D2E/DX2 analytically  !
 ! D19   D(10,4,7,3)           177.381          calculate D2E/DX2 analytically  !
 ! D20   D(10,4,7,9)            -3.3566         calculate D2E/DX2 analytically  !
 ! D21   D(2,4,10,11)          -32.3955         calculate D2E/DX2 analytically  !
 ! D22   D(2,4,10,12)           90.4738         calculate D2E/DX2 analytically  !
 ! D23   D(2,4,10,13)          -30.2278         calculate D2E/DX2 analytically  !
 ! D24   D(2,4,10,14)         -155.7426         calculate D2E/DX2 analytically  !
 ! D25   D(7,4,10,11)          150.4997         calculate D2E/DX2 analytically  !
 ! D26   D(7,4,10,12)          -86.6309         calculate D2E/DX2 analytically  !
 ! D27   D(7,4,10,13)          152.6674         calculate D2E/DX2 analytically  !
 ! D28   D(7,4,10,14)           27.1527         calculate D2E/DX2 analytically  !
 --------------------------------------------------------------------------------
 Trust Radius=3.00D-01 FncErr=1.00D-07 GrdErr=1.00D-07
 Number of steps in this run=      2 maximum allowed number of steps=      2.
 GradGradGradGradGradGradGradGradGradGradGradGradGradGradGradGradGradGrad

 Leave Link  103 at Wed Apr 17 13:11:05 2019, MaxMem=  2147483648 cpu:         0.1
 (Enter /software/sse/easybuild/prefix/software/Gaussian/09.E.01-avx-nsc1-bdist/g09/l202.exe)
                          Input orientation:                          
 ---------------------------------------------------------------------
 Center     Atomic      Atomic             Coordinates (Angstroms)
 Number     Number       Type             X           Y           Z
 ---------------------------------------------------------------------
      1          7           0        2.905183   -0.829186    0.138684
      2          6           0        1.561731   -1.034276    0.213050
      3          6           0        3.113841    0.509202   -0.163125
      4          7           0        0.922577    0.089781   -0.021427
      5          1           0        1.061686   -1.971315    0.409486
      6          1           0        3.615513   -1.530131    0.270780
      7          6           0        1.863316    1.060908   -0.258240
      8          1           0        4.102932    0.922518   -0.282110
      9          1           0        1.546605    2.066112   -0.487227
     10         23           0       -1.207623    0.250480    0.067058
     11          8           0       -1.094384   -1.544359   -0.541891
     12          8           0       -1.251875    0.656362    1.645517
     13          8           0       -2.456253   -1.064248   -0.299185
     14          8           0       -1.269868    1.541321   -0.932463
 ---------------------------------------------------------------------
                    Distance matrix (angstroms):
                    1          2          3          4          5
     1  N    0.000000
     2  C    1.361049   0.000000
     3  C    1.387771   2.221008   0.000000
     4  N    2.191087   1.314154   2.235538   0.000000
     5  H    2.185469   1.080127   3.269891   2.110250   0.000000
     6  H    1.006649   2.113581   2.144488   3.156169   2.595364
     7  C    2.194423   2.168609   1.370124   1.372646   3.206688
     8  H    2.163362   3.245293   1.078559   3.297888   4.254615
     9  H    3.258872   3.178525   2.232765   2.124209   4.164139
    10  V    4.252762   3.056343   4.335317   2.138085   3.194275
    11  O    4.119611   2.808036   4.697844   2.647532   2.395005
    12  O    4.664604   3.581424   4.727824   2.797849   3.712819
    13  O    5.384420   4.050615   5.789664   3.581260   3.701470
    14  O    4.919117   3.995479   4.568813   2.782763   4.424430
                    6          7          8          9         10
     6  H    0.000000
     7  C    3.172308   0.000000
     8  H    2.561006   2.244015   0.000000
     9  H    4.217573   1.078506   2.807969   0.000000
    10  V    5.145359   3.192691   5.364284   3.345074   0.000000
    11  O    4.779515   3.951691   5.758912   4.473624   1.898707
    12  O    5.510183   3.673195   5.697415   3.790446   1.630408
    13  O    6.116228   4.814212   6.853498   5.085016   1.849789
    14  O    5.894791   3.240712   5.447280   2.899338   1.633765
                   11         12         13         14
    11  O    0.000000
    12  O    3.106884   0.000000
    13  O    1.464275   2.862323   0.000000
    14  O    3.115247   2.725703   2.932156   0.000000
 Stoichiometry    C3H4N2O4V(1-)
 Framework group  C1[X(C3H4N2O4V)]
 Deg. of freedom    36
 Full point group                 C1      NOp   1
 Largest Abelian subgroup         C1      NOp   1
 Largest concise Abelian subgroup C1      NOp   1
                         Standard orientation:                         
 ---------------------------------------------------------------------
 Center     Atomic      Atomic             Coordinates (Angstroms)
 Number     Number       Type             X           Y           Z
 ---------------------------------------------------------------------
      1          7           0       -2.905183    0.829186    0.138684
      2          6           0       -1.561731    1.034276    0.213050
      3          6           0       -3.113841   -0.509202   -0.163125
      4          7           0       -0.922577   -0.089781   -0.021427
      5          1           0       -1.061686    1.971315    0.409486
      6          1           0       -3.615513    1.530131    0.270780
      7          6           0       -1.863316   -1.060908   -0.258240
      8          1           0       -4.102932   -0.922518   -0.282110
      9          1           0       -1.546605   -2.066112   -0.487227
     10         23           0        1.207623   -0.250480    0.067058
     11          8           0        1.094384    1.544359   -0.541891
     12          8           0        1.251875   -0.656362    1.645517
     13          8           0        2.456253    1.064248   -0.299185
     14          8           0        1.269868   -1.541321   -0.932463
 ---------------------------------------------------------------------
 Rotational constants (GHZ):      2.2863686      0.7698525      0.6779105
 Leave Link  202 at Wed Apr 17 13:11:05 2019, MaxMem=  2147483648 cpu:         0.1
 (Enter /software/sse/easybuild/prefix/software/Gaussian/09.E.01-avx-nsc1-bdist/g09/l301.exe)
 Standard basis: 6-31G(d,p) (6D, 7F)
 ======================================================================================================
                                       Pseudopotential Parameters
 ======================================================================================================
  Center     Atomic      Valence      Angular      Power
  Number     Number     Electrons     Momentum     of R      Exponent        Coefficient   SO-Coeffient
 ======================================================================================================
    1          7
                                   No pseudopotential on this center.
    2          6
                                   No pseudopotential on this center.
    3          6
                                   No pseudopotential on this center.
    4          7
                                   No pseudopotential on this center.
    5          1
                                   No pseudopotential on this center.
    6          1
                                   No pseudopotential on this center.
    7          6
                                   No pseudopotential on this center.
    8          1
                                   No pseudopotential on this center.
    9          1
                                   No pseudopotential on this center.
   10         23
                                   No pseudopotential on this center.
   11          8
                                   No pseudopotential on this center.
   12          8
                                   No pseudopotential on this center.
   13          8
                                   No pseudopotential on this center.
   14          8
                                   No pseudopotential on this center.
 ======================================================================================================
 Ernie: Thresh=  0.10000D-02 Tol=  0.10000D-05 Strict=F.
 There are   194 symmetry adapted cartesian basis functions of A   symmetry.
 There are   191 symmetry adapted basis functions of A   symmetry.
   191 basis functions,   384 primitive gaussians,   194 cartesian basis functions
    46 alpha electrons       46 beta electrons
       nuclear repulsion energy       759.7558085825 Hartrees.
 IExCor=  402 DFT=T Ex+Corr=B3LYP ExCW=0 ScaHFX=  0.200000
 ScaDFX=  0.800000  0.720000  1.000000  0.810000 ScalE2=  1.000000  1.000000
 IRadAn=      0 IRanWt=     -1 IRanGd=            0 ICorTp=0 IEmpDi=131
 NAtoms=   14 NActive=   14 NUniq=   14 SFac= 1.00D+00 NAtFMM=   60 NAOKFM=F Big=F
 Integral buffers will be    131072 words long.
 Raffenetti 2 integral format.
 Two-electron integral symmetry is turned on.
 R6Disp:  Grimme-D3 Dispersion energy=       -0.0115985507 Hartrees.
 Nuclear repulsion after empirical dispersion term =      759.7442100318 Hartrees.
 Leave Link  301 at Wed Apr 17 13:11:05 2019, MaxMem=  2147483648 cpu:         0.8
 (Enter /software/sse/easybuild/prefix/software/Gaussian/09.E.01-avx-nsc1-bdist/g09/l302.exe)
 NPDir=0 NMtPBC=     1 NCelOv=     1 NCel=       1 NClECP=     1 NCelD=      1
         NCelK=      1 NCelE2=     1 NClLst=     1 CellRange=     0.0.
 One-electron integrals computed using PRISM.
   1 Symmetry operations used in ECPInt.
 ECPInt:  NShTT=    1596 NPrTT=   10956 LenC2=    1512 LenP2D=    6871.
 LDataN:  DoStor=T MaxTD1= 6 Len=  172
 NBasis=   191 RedAO= T EigKep=  1.55D-03  NBF=   191
 NBsUse=   191 1.00D-06 EigRej= -1.00D+00 NBFU=   191
 Precomputing XC quadrature grid using
 IXCGrd= 4 IRadAn=           0 IRanWt=          -1 IRanGd=           0 AccXCQ= 0.00D+00.
 Generated NRdTot=       0 NPtTot=           0 NUsed=           0 NTot=          32
 NSgBfM=   193   193   193   193   193 MxSgAt=    14 MxSgA2=    14.
 Leave Link  302 at Wed Apr 17 13:11:05 2019, MaxMem=  2147483648 cpu:         3.7
 (Enter /software/sse/easybuild/prefix/software/Gaussian/09.E.01-avx-nsc1-bdist/g09/l303.exe)
 DipDrv:  MaxL=1.
 Leave Link  303 at Wed Apr 17 13:11:05 2019, MaxMem=  2147483648 cpu:         0.4
 (Enter /software/sse/easybuild/prefix/software/Gaussian/09.E.01-avx-nsc1-bdist/g09/l401.exe)
 ExpMin= 3.43D-02 ExpMax= 4.74D+04 ExpMxC= 7.11D+03 IAcc=3 IRadAn=         5 AccDes= 0.00D+00
 Harris functional with IExCor=  402 and IRadAn=       5 diagonalized for initial guess.
 HarFok:  IExCor=  402 AccDes= 0.00D+00 IRadAn=         5 IDoV= 1 UseB2=F ITyADJ=14
 ICtDFT=  3500011 ScaDFX=  1.000000  1.000000  1.000000  1.000000
 FoFCou: FMM=F IPFlag=           0 FMFlag=      100000 FMFlg1=           0
         NFxFlg=           0 DoJE=T BraDBF=F KetDBF=T FulRan=T
         wScrn=  0.000000 ICntrl=     500 IOpCl=  0 I1Cent=   200000004 NGrid=           0
         NMat0=    1 NMatS0=      1 NMatT0=    0 NMatD0=    1 NMtDS0=    0 NMtDT0=    0
 Petite list used in FoFCou.
 Harris En= -1471.58070308288    
 JPrj=0 DoOrth=F DoCkMO=F.
 Leave Link  401 at Wed Apr 17 13:11:06 2019, MaxMem=  2147483648 cpu:         8.9
 (Enter /software/sse/easybuild/prefix/software/Gaussian/09.E.01-avx-nsc1-bdist/g09/l502.exe)
 Closed shell SCF:
 Using DIIS extrapolation, IDIIS=  1040.
 Integral symmetry usage will be decided dynamically.
 Keep R1 ints in memory in canonical form, NReq=171956957.
 IVT=      136001 IEndB=      136001 NGot=  2147483648 MDV=  1979234032
 LenX=  1979234032 LenY=  1979195955
 Requested convergence on RMS density matrix=1.00D-08 within 128 cycles.
 Requested convergence on MAX density matrix=1.00D-06.
 Requested convergence on             energy=1.00D-06.
 No special actions if energy rises.
 FoFCou: FMM=F IPFlag=           0 FMFlag=           0 FMFlg1=           0
         NFxFlg=           0 DoJE=F BraDBF=F KetDBF=F FulRan=T
         wScrn=  0.000000 ICntrl=     600 IOpCl=  0 I1Cent=           0 NGrid=           0
         NMat0=    1 NMatS0=  18336 NMatT0=    0 NMatD0=    1 NMtDS0=    0 NMtDT0=    0
 Symmetry not used in FoFCou.

 Cycle   1  Pass 1  IDiag  1:
 E= -1470.17536451620    
 DIIS: error= 6.40D-02 at cycle   1 NSaved=   1.
 NSaved= 1 IEnMin= 1 EnMin= -1470.17536451620     IErMin= 1 ErrMin= 6.40D-02
 ErrMax= 6.40D-02  0.00D+00 EMaxC= 1.00D-01 BMatC= 1.27D+00 BMatP= 1.27D+00
 IDIUse=3 WtCom= 3.60D-01 WtEn= 6.40D-01
 Coeff-Com:  0.100D+01
 Coeff-En:   0.100D+01
 Coeff:      0.100D+01
 Gap=     0.316 Goal=   None    Shift=    0.000
 GapD=    0.316 DampG=1.000 DampE=0.250 DampFc=0.2500 IDamp=-1.
 Damping current iteration by 2.50D-01
 RMSDP=3.38D-02 MaxDP=3.08D+00              OVMax= 8.64D-01

 Cycle   2  Pass 1  IDiag  1:
 E= -1469.87916200579     Delta-E=        0.296202510409 Rises=F Damp=T
 DIIS: error= 2.59D-02 at cycle   2 NSaved=   2.
 NSaved= 2 IEnMin= 1 EnMin= -1470.17536451620     IErMin= 2 ErrMin= 2.59D-02
 ErrMax= 2.59D-02  0.00D+00 EMaxC= 1.00D-01 BMatC= 2.88D-01 BMatP= 1.27D+00
 IDIUse=3 WtCom= 7.41D-01 WtEn= 2.59D-01
 Coeff-Com:  0.250D+00 0.750D+00
 Coeff-En:   0.582D+00 0.418D+00
 Coeff:      0.336D+00 0.664D+00
 Gap=     0.009 Goal=   None    Shift=    0.000
 RMSDP=9.47D-03 MaxDP=7.35D-01 DE= 2.96D-01 OVMax= 9.44D-01

 Cycle   3  Pass 1  IDiag  1:
 E= -1470.74236520014     Delta-E=       -0.863203194344 Rises=F Damp=F
 DIIS: error= 2.91D-02 at cycle   3 NSaved=   3.
 NSaved= 3 IEnMin= 3 EnMin= -1470.74236520014     IErMin= 2 ErrMin= 2.59D-02
 ErrMax= 2.91D-02  0.00D+00 EMaxC= 1.00D-01 BMatC= 4.78D-01 BMatP= 2.88D-01
 IDIUse=2 WtCom= 0.00D+00 WtEn= 1.00D+00
 EnCoef did     2 forward-backward iterations
 Coeff-En:   0.139D+00 0.129D+00 0.732D+00
 Coeff:      0.139D+00 0.129D+00 0.732D+00
 Gap=     0.396 Goal=   None    Shift=    0.000
 RMSDP=1.35D-02 MaxDP=3.73D-01 DE=-8.63D-01 OVMax= 9.85D-01

 Cycle   4  Pass 1  IDiag  1:
 E= -1459.60358327522     Delta-E=       11.138781924923 Rises=F Damp=F
 DIIS: error= 2.12D-01 at cycle   4 NSaved=   4.
 NSaved= 4 IEnMin= 3 EnMin= -1470.74236520014     IErMin= 2 ErrMin= 2.59D-02
 ErrMax= 2.12D-01  0.00D+00 EMaxC= 1.00D-01 BMatC= 1.60D+01 BMatP= 2.88D-01
 IDIUse=2 WtCom= 0.00D+00 WtEn= 1.00D+00
 EnCoef did     2 forward-backward iterations
 Coeff-En:   0.165D+00 0.000D+00 0.749D+00 0.863D-01
 Coeff:      0.165D+00 0.000D+00 0.749D+00 0.863D-01
 Gap=    -0.114 Goal=   None    Shift=    0.000
 RMSDP=9.88D-03 MaxDP=2.96D-01 DE= 1.11D+01 OVMax= 9.99D-01

 Cycle   5  Pass 1  IDiag  1:
 E= -1470.21345294408     Delta-E=      -10.609869668860 Rises=F Damp=F
 DIIS: error= 6.95D-02 at cycle   5 NSaved=   5.
 NSaved= 5 IEnMin= 3 EnMin= -1470.74236520014     IErMin= 2 ErrMin= 2.59D-02
 ErrMax= 6.95D-02  0.00D+00 EMaxC= 1.00D-01 BMatC= 1.58D+00 BMatP= 2.88D-01
 IDIUse=2 WtCom= 0.00D+00 WtEn= 1.00D+00
 EnCoef did     3 forward-backward iterations
 Coeff-En:   0.139D+00 0.000D+00 0.502D+00 0.000D+00 0.360D+00
 Coeff:      0.139D+00 0.000D+00 0.502D+00 0.000D+00 0.360D+00
 Gap=     0.157 Goal=   None    Shift=    0.000
 RMSDP=3.61D-03 MaxDP=1.36D-01 DE=-1.06D+01 OVMax= 2.58D-01

 Cycle   6  Pass 1  IDiag  1:
 E= -1471.09914131124     Delta-E=       -0.885688367165 Rises=F Damp=F
 DIIS: error= 2.12D-02 at cycle   6 NSaved=   6.
 NSaved= 6 IEnMin= 6 EnMin= -1471.09914131124     IErMin= 6 ErrMin= 2.12D-02
 ErrMax= 2.12D-02  0.00D+00 EMaxC= 1.00D-01 BMatC= 1.22D-01 BMatP= 2.88D-01
 IDIUse=3 WtCom= 7.88D-01 WtEn= 2.12D-01
 EnCoef did     5 forward-backward iterations
 Coeff-Com: -0.143D-01 0.202D+00 0.247D+00-0.332D-01 0.182D+00 0.417D+00
 Coeff-En:   0.000D+00 0.000D+00 0.104D+00 0.000D+00 0.131D+00 0.764D+00
 Coeff:     -0.113D-01 0.159D+00 0.217D+00-0.261D-01 0.171D+00 0.490D+00
 Gap=     0.190 Goal=   None    Shift=    0.000
 RMSDP=1.71D-03 MaxDP=5.89D-02 DE=-8.86D-01 OVMax= 1.28D-01

 Cycle   7  Pass 1  IDiag  1:
 E= -1471.17706533822     Delta-E=       -0.077924026984 Rises=F Damp=F
 DIIS: error= 6.41D-03 at cycle   7 NSaved=   7.
 NSaved= 7 IEnMin= 7 EnMin= -1471.17706533822     IErMin= 7 ErrMin= 6.41D-03
 ErrMax= 6.41D-03  0.00D+00 EMaxC= 1.00D-01 BMatC= 2.06D-02 BMatP= 1.22D-01
 IDIUse=3 WtCom= 9.36D-01 WtEn= 6.41D-02
 Coeff-Com: -0.508D-01 0.793D-01 0.635D-01-0.767D-02 0.407D-01 0.388D+00
 Coeff-Com:  0.487D+00
 Coeff-En:   0.000D+00 0.000D+00 0.000D+00 0.000D+00 0.000D+00 0.219D+00
 Coeff-En:   0.781D+00
 Coeff:     -0.475D-01 0.742D-01 0.594D-01-0.718D-02 0.380D-01 0.377D+00
 Coeff:      0.506D+00
 Gap=     0.126 Goal=   None    Shift=    0.000
 RMSDP=7.54D-04 MaxDP=2.07D-02 DE=-7.79D-02 OVMax= 3.74D-02

 Cycle   8  Pass 1  IDiag  1:
 E= -1471.19129344913     Delta-E=       -0.014228110903 Rises=F Damp=F
 DIIS: error= 4.12D-03 at cycle   8 NSaved=   8.
 NSaved= 8 IEnMin= 8 EnMin= -1471.19129344913     IErMin= 8 ErrMin= 4.12D-03
 ErrMax= 4.12D-03  0.00D+00 EMaxC= 1.00D-01 BMatC= 5.76D-03 BMatP= 2.06D-02
 IDIUse=3 WtCom= 9.59D-01 WtEn= 4.12D-02
 Coeff-Com: -0.273D-01 0.987D-02-0.866D-02-0.964D-03 0.220D-01 0.975D-01
 Coeff-Com:  0.284D+00 0.624D+00
 Coeff-En:   0.000D+00 0.000D+00 0.000D+00 0.000D+00 0.000D+00 0.000D+00
 Coeff-En:   0.205D+00 0.795D+00
 Coeff:     -0.261D-01 0.946D-02-0.830D-02-0.924D-03 0.211D-01 0.935D-01
 Coeff:      0.280D+00 0.631D+00
 Gap=     0.122 Goal=   None    Shift=    0.000
 RMSDP=2.27D-04 MaxDP=8.55D-03 DE=-1.42D-02 OVMax= 1.29D-02

 Cycle   9  Pass 1  IDiag  1:
 E= -1471.19538224373     Delta-E=       -0.004088794605 Rises=F Damp=F
 DIIS: error= 3.93D-04 at cycle   9 NSaved=   9.
 NSaved= 9 IEnMin= 9 EnMin= -1471.19538224373     IErMin= 9 ErrMin= 3.93D-04
 ErrMax= 3.93D-04  0.00D+00 EMaxC= 1.00D-01 BMatC= 9.91D-05 BMatP= 5.76D-03
 IDIUse=3 WtCom= 9.96D-01 WtEn= 3.93D-03
 Coeff-Com: -0.705D-02 0.666D-03-0.969D-02-0.465D-03 0.970D-02 0.281D-02
 Coeff-Com:  0.953D-01 0.311D+00 0.597D+00
 Coeff-En:   0.000D+00 0.000D+00 0.000D+00 0.000D+00 0.000D+00 0.000D+00
 Coeff-En:   0.000D+00 0.000D+00 0.100D+01
 Coeff:     -0.702D-02 0.663D-03-0.965D-02-0.463D-03 0.967D-02 0.280D-02
 Coeff:      0.949D-01 0.310D+00 0.599D+00
 Gap=     0.122 Goal=   None    Shift=    0.000
 RMSDP=5.38D-05 MaxDP=1.88D-03 DE=-4.09D-03 OVMax= 2.61D-03

 Cycle  10  Pass 1  IDiag  1:
 E= -1471.19542136391     Delta-E=       -0.000039120176 Rises=F Damp=F
 DIIS: error= 3.00D-04 at cycle  10 NSaved=  10.
 NSaved=10 IEnMin=10 EnMin= -1471.19542136391     IErMin=10 ErrMin= 3.00D-04
 ErrMax= 3.00D-04  0.00D+00 EMaxC= 1.00D-01 BMatC= 5.41D-05 BMatP= 9.91D-05
 IDIUse=3 WtCom= 9.97D-01 WtEn= 3.00D-03
 Coeff-Com: -0.167D-02 0.142D-03-0.573D-02-0.160D-03 0.367D-02-0.102D-01
 Coeff-Com:  0.337D-01 0.135D+00 0.463D+00 0.382D+00
 Coeff-En:   0.000D+00 0.000D+00 0.000D+00 0.000D+00 0.000D+00 0.000D+00
 Coeff-En:   0.000D+00 0.000D+00 0.347D+00 0.653D+00
 Coeff:     -0.166D-02 0.141D-03-0.571D-02-0.160D-03 0.366D-02-0.102D-01
 Coeff:      0.336D-01 0.134D+00 0.463D+00 0.383D+00
 Gap=     0.123 Goal=   None    Shift=    0.000
 RMSDP=3.16D-05 MaxDP=9.87D-04 DE=-3.91D-05 OVMax= 1.87D-03

 Cycle  11  Pass 1  IDiag  1:
 E= -1471.19545924832     Delta-E=       -0.000037884417 Rises=F Damp=F
 DIIS: error= 1.47D-04 at cycle  11 NSaved=  11.
 NSaved=11 IEnMin=11 EnMin= -1471.19545924832     IErMin=11 ErrMin= 1.47D-04
 ErrMax= 1.47D-04  0.00D+00 EMaxC= 1.00D-01 BMatC= 6.55D-06 BMatP= 5.41D-05
 IDIUse=3 WtCom= 9.99D-01 WtEn= 1.47D-03
 Coeff-Com: -0.166D-03-0.753D-04-0.242D-02-0.160D-04 0.975D-03-0.616D-02
 Coeff-Com:  0.980D-02 0.385D-01 0.224D+00 0.278D+00 0.458D+00
 Coeff-En:   0.000D+00 0.000D+00 0.000D+00 0.000D+00 0.000D+00 0.000D+00
 Coeff-En:   0.000D+00 0.000D+00 0.000D+00 0.107D+00 0.893D+00
 Coeff:     -0.165D-03-0.752D-04-0.242D-02-0.160D-04 0.973D-03-0.616D-02
 Coeff:      0.978D-02 0.384D-01 0.224D+00 0.277D+00 0.458D+00
 Gap=     0.123 Goal=   None    Shift=    0.000
 RMSDP=1.35D-05 MaxDP=5.21D-04 DE=-3.79D-05 OVMax= 8.62D-04

 Cycle  12  Pass 1  IDiag  1:
 E= -1471.19546348570     Delta-E=       -0.000004237371 Rises=F Damp=F
 DIIS: error= 6.87D-05 at cycle  12 NSaved=  12.
 NSaved=12 IEnMin=12 EnMin= -1471.19546348570     IErMin=12 ErrMin= 6.87D-05
 ErrMax= 6.87D-05  0.00D+00 EMaxC= 1.00D-01 BMatC= 1.88D-06 BMatP= 6.55D-06
 IDIUse=1 WtCom= 1.00D+00 WtEn= 0.00D+00
 Coeff-Com:  0.146D-03-0.164D-03-0.854D-03-0.338D-04 0.373D-03-0.229D-02
 Coeff-Com:  0.292D-02 0.673D-02 0.919D-01 0.148D+00 0.362D+00 0.391D+00
 Coeff:      0.146D-03-0.164D-03-0.854D-03-0.338D-04 0.373D-03-0.229D-02
 Coeff:      0.292D-02 0.673D-02 0.919D-01 0.148D+00 0.362D+00 0.391D+00
 Gap=     0.123 Goal=   None    Shift=    0.000
 RMSDP=6.12D-06 MaxDP=2.14D-04 DE=-4.24D-06 OVMax= 3.58D-04

 Cycle  13  Pass 1  IDiag  1:
 E= -1471.19546476200     Delta-E=       -0.000001276304 Rises=F Damp=F
 DIIS: error= 2.86D-05 at cycle  13 NSaved=  13.
 NSaved=13 IEnMin=13 EnMin= -1471.19546476200     IErMin=13 ErrMin= 2.86D-05
 ErrMax= 2.86D-05  0.00D+00 EMaxC= 1.00D-01 BMatC= 3.28D-07 BMatP= 1.88D-06
 IDIUse=1 WtCom= 1.00D+00 WtEn= 0.00D+00
 Coeff-Com:  0.211D-03-0.123D-03-0.121D-03-0.266D-05-0.110D-03-0.583D-03
 Coeff-Com: -0.115D-03-0.229D-02 0.166D-01 0.460D-01 0.154D+00 0.256D+00
 Coeff-Com:  0.530D+00
 Coeff:      0.211D-03-0.123D-03-0.121D-03-0.266D-05-0.110D-03-0.583D-03
 Coeff:     -0.115D-03-0.229D-02 0.166D-01 0.460D-01 0.154D+00 0.256D+00
 Coeff:      0.530D+00
 Gap=     0.123 Goal=   None    Shift=    0.000
 RMSDP=2.10D-06 MaxDP=6.95D-05 DE=-1.28D-06 OVMax= 1.23D-04

 Cycle  14  Pass 1  IDiag  1:
 E= -1471.19546498457     Delta-E=       -0.000000222567 Rises=F Damp=F
 DIIS: error= 1.39D-05 at cycle  14 NSaved=  14.
 NSaved=14 IEnMin=14 EnMin= -1471.19546498457     IErMin=14 ErrMin= 1.39D-05
 ErrMax= 1.39D-05  0.00D+00 EMaxC= 1.00D-01 BMatC= 6.90D-08 BMatP= 3.28D-07
 IDIUse=1 WtCom= 1.00D+00 WtEn= 0.00D+00
 Coeff-Com:  0.104D-03-0.320D-04 0.546D-04 0.122D-04-0.192D-03-0.150D-04
 Coeff-Com: -0.372D-03-0.998D-03-0.333D-02 0.390D-02 0.243D-01 0.563D-01
 Coeff-Com:  0.248D+00 0.672D+00
 Coeff:      0.104D-03-0.320D-04 0.546D-04 0.122D-04-0.192D-03-0.150D-04
 Coeff:     -0.372D-03-0.998D-03-0.333D-02 0.390D-02 0.243D-01 0.563D-01
 Coeff:      0.248D+00 0.672D+00
 Gap=     0.123 Goal=   None    Shift=    0.000
 RMSDP=1.00D-06 MaxDP=2.56D-05 DE=-2.23D-07 OVMax= 6.74D-05

 Cycle  15  Pass 1  IDiag  1:
 E= -1471.19546503669     Delta-E=       -0.000000052120 Rises=F Damp=F
 DIIS: error= 3.25D-06 at cycle  15 NSaved=  15.
 NSaved=15 IEnMin=15 EnMin= -1471.19546503669     IErMin=15 ErrMin= 3.25D-06
 ErrMax= 3.25D-06  0.00D+00 EMaxC= 1.00D-01 BMatC= 3.27D-09 BMatP= 6.90D-08
 IDIUse=1 WtCom= 1.00D+00 WtEn= 0.00D+00
 Coeff-Com:  0.851D-05-0.102D-04 0.375D-04 0.386D-05-0.560D-04 0.154D-03
 Coeff-Com: -0.121D-03 0.928D-04-0.344D-02-0.514D-02-0.146D-01-0.186D-01
 Coeff-Com:  0.329D-01 0.313D+00 0.696D+00
 Coeff:      0.851D-05-0.102D-04 0.375D-04 0.386D-05-0.560D-04 0.154D-03
 Coeff:     -0.121D-03 0.928D-04-0.344D-02-0.514D-02-0.146D-01-0.186D-01
 Coeff:      0.329D-01 0.313D+00 0.696D+00
 Gap=     0.123 Goal=   None    Shift=    0.000
 RMSDP=3.87D-07 MaxDP=1.28D-05 DE=-5.21D-08 OVMax= 3.84D-05

 Cycle  16  Pass 1  IDiag  1:
 E= -1471.19546503986     Delta-E=       -0.000000003171 Rises=F Damp=F
 DIIS: error= 1.43D-06 at cycle  16 NSaved=  16.
 NSaved=16 IEnMin=16 EnMin= -1471.19546503986     IErMin=16 ErrMin= 1.43D-06
 ErrMax= 1.43D-06  0.00D+00 EMaxC= 1.00D-01 BMatC= 4.48D-10 BMatP= 3.27D-09
 IDIUse=1 WtCom= 1.00D+00 WtEn= 0.00D+00
 Coeff-Com: -0.841D-05-0.394D-05 0.137D-04-0.579D-08-0.307D-05 0.992D-04
 Coeff-Com: -0.365D-04 0.171D-03-0.138D-02-0.342D-02-0.118D-01-0.185D-01
 Coeff-Com: -0.122D-01 0.878D-01 0.378D+00 0.581D+00
 Coeff:     -0.841D-05-0.394D-05 0.137D-04-0.579D-08-0.307D-05 0.992D-04
 Coeff:     -0.365D-04 0.171D-03-0.138D-02-0.342D-02-0.118D-01-0.185D-01
 Coeff:     -0.122D-01 0.878D-01 0.378D+00 0.581D+00
 Gap=     0.123 Goal=   None    Shift=    0.000
 RMSDP=1.45D-07 MaxDP=5.24D-06 DE=-3.17D-09 OVMax= 1.26D-05

 Cycle  17  Pass 1  IDiag  1:
 E= -1471.19546504031     Delta-E=       -0.000000000454 Rises=F Damp=F
 DIIS: error= 3.23D-07 at cycle  17 NSaved=  17.
 NSaved=17 IEnMin=17 EnMin= -1471.19546504031     IErMin=17 ErrMin= 3.23D-07
 ErrMax= 3.23D-07  0.00D+00 EMaxC= 1.00D-01 BMatC= 4.95D-11 BMatP= 4.48D-10
 IDIUse=1 WtCom= 1.00D+00 WtEn= 0.00D+00
 Coeff-Com: -0.327D-05 0.481D-06 0.219D-05 0.771D-07 0.675D-06 0.205D-04
 Coeff-Com: -0.192D-04 0.717D-04-0.231D-03-0.926D-03-0.337D-02-0.571D-02
 Coeff-Com: -0.754D-02 0.560D-02 0.840D-01 0.252D+00 0.676D+00
 Coeff:     -0.327D-05 0.481D-06 0.219D-05 0.771D-07 0.675D-06 0.205D-04
 Coeff:     -0.192D-04 0.717D-04-0.231D-03-0.926D-03-0.337D-02-0.571D-02
 Coeff:     -0.754D-02 0.560D-02 0.840D-01 0.252D+00 0.676D+00
 Gap=     0.123 Goal=   None    Shift=    0.000
 RMSDP=4.08D-08 MaxDP=1.00D-06 DE=-4.54D-10 OVMax= 2.24D-06

 Cycle  18  Pass 1  IDiag  1:
 E= -1471.19546504036     Delta-E=       -0.000000000043 Rises=F Damp=F
 DIIS: error= 9.45D-08 at cycle  18 NSaved=  18.
 NSaved=18 IEnMin=18 EnMin= -1471.19546504036     IErMin=18 ErrMin= 9.45D-08
 ErrMax= 9.45D-08  0.00D+00 EMaxC= 1.00D-01 BMatC= 5.18D-12 BMatP= 4.95D-11
 IDIUse=1 WtCom= 1.00D+00 WtEn= 0.00D+00
 Coeff-Com: -0.783D-06 0.513D-06-0.314D-06-0.592D-07 0.993D-06-0.326D-06
 Coeff-Com: -0.982D-05 0.261D-04-0.596D-05-0.190D-03-0.730D-03-0.129D-02
 Coeff-Com: -0.227D-02-0.285D-02 0.974D-02 0.725D-01 0.333D+00 0.592D+00
 Coeff:     -0.783D-06 0.513D-06-0.314D-06-0.592D-07 0.993D-06-0.326D-06
 Coeff:     -0.982D-05 0.261D-04-0.596D-05-0.190D-03-0.730D-03-0.129D-02
 Coeff:     -0.227D-02-0.285D-02 0.974D-02 0.725D-01 0.333D+00 0.592D+00
 Gap=     0.123 Goal=   None    Shift=    0.000
 RMSDP=1.18D-08 MaxDP=3.51D-07 DE=-4.27D-11 OVMax= 5.90D-07

 Cycle  19  Pass 1  IDiag  1:
 E= -1471.19546504036     Delta-E=       -0.000000000000 Rises=F Damp=F
 DIIS: error= 6.13D-08 at cycle  19 NSaved=  19.
 NSaved=19 IEnMin=19 EnMin= -1471.19546504036     IErMin=19 ErrMin= 6.13D-08
 ErrMax= 6.13D-08  0.00D+00 EMaxC= 1.00D-01 BMatC= 1.19D-12 BMatP= 5.18D-12
 IDIUse=1 WtCom= 1.00D+00 WtEn= 0.00D+00
 Coeff-Com: -0.138D-06 0.166D-06-0.177D-06-0.422D-07 0.435D-06-0.162D-05
 Coeff-Com: -0.287D-05-0.301D-07-0.272D-05-0.192D-04-0.516D-04-0.375D-04
 Coeff-Com: -0.181D-03-0.592D-03-0.386D-03 0.761D-02 0.511D-01 0.186D+00
 Coeff-Com:  0.756D+00
 Coeff:     -0.138D-06 0.166D-06-0.177D-06-0.422D-07 0.435D-06-0.162D-05
 Coeff:     -0.287D-05-0.301D-07-0.272D-05-0.192D-04-0.516D-04-0.375D-04
 Coeff:     -0.181D-03-0.592D-03-0.386D-03 0.761D-02 0.511D-01 0.186D+00
 Coeff:      0.756D+00
 Gap=     0.123 Goal=   None    Shift=    0.000
 RMSDP=3.46D-09 MaxDP=1.04D-07 DE=-4.55D-13 OVMax= 2.03D-07

 SCF Done:  E(RB3LYP) =  -1471.19546504     A.U. after   19 cycles
            NFock= 19  Conv=0.35D-08     -V/T= 2.0043
 KE= 1.464834446923D+03 PE=-5.010515709876D+03 EE= 1.314741587881D+03
 Leave Link  502 at Wed Apr 17 13:11:14 2019, MaxMem=  2147483648 cpu:        79.2
 (Enter /software/sse/easybuild/prefix/software/Gaussian/09.E.01-avx-nsc1-bdist/g09/l801.exe)
 DoSCS=F DFT=T ScalE2(SS,OS)=  1.000000  1.000000
 Range of M.O.s used for correlation:     1   191
 NBasis=   191 NAE=    46 NBE=    46 NFC=     0 NFV=     0
 NROrb=    191 NOA=    46 NOB=    46 NVA=   145 NVB=   145

 **** Warning!!: The largest alpha MO coefficient is  0.12650742D+02

 Leave Link  801 at Wed Apr 17 13:11:15 2019, MaxMem=  2147483648 cpu:         0.3
 (Enter /software/sse/easybuild/prefix/software/Gaussian/09.E.01-avx-nsc1-bdist/g09/l1101.exe)
 Using compressed storage, NAtomX=    14.
 Will process     15 centers per pass.
   1 Symmetry operations used in ECPInt.
 ECPInt:  NShTT=    1596 NPrTT=   10956 LenC2=    1512 LenP2D=    6871.
 LDataN:  DoStor=T MaxTD1= 7 Len=  274
 R6Disp: Adding Grimme-D3 dispersion energy 1st derivatives to the gradient.
 Leave Link 1101 at Wed Apr 17 13:11:15 2019, MaxMem=  2147483648 cpu:         3.8
 (Enter /software/sse/easybuild/prefix/software/Gaussian/09.E.01-avx-nsc1-bdist/g09/l1102.exe)
 Symmetrizing basis deriv contribution to polar:
 IMax=3 JMax=2 DiffMx= 0.00D+00
 Leave Link 1102 at Wed Apr 17 13:11:15 2019, MaxMem=  2147483648 cpu:         0.3
 (Enter /software/sse/easybuild/prefix/software/Gaussian/09.E.01-avx-nsc1-bdist/g09/l1110.exe)
 Forming Gx(P) for the SCF density, NAtomX=    14.
 Integral derivatives from FoFJK, PRISM(SPDF).
 Do as many integral derivatives as possible in FoFJK.
 G2DrvN: MDV=    2147483432.
 G2DrvN: will do    15 centers at a time, making    1 passes.
 Calling FoFCou, ICntrl=  3107 FMM=F I1Cent=   0 AccDes= 0.00D+00.
 FoFJK:  IHMeth= 1 ICntrl=    3107 DoSepK=F KAlg= 0 I1Cent=   0 FoldK=F
 IRaf=         0 NMat=   1 IRICut=       1 DoRegI=T DoRafI=F ISym2E= 0.
 FoFCou: FMM=F IPFlag=           0 FMFlag=      100000 FMFlg1=           0
         NFxFlg=           0 DoJE=F BraDBF=F KetDBF=F FulRan=T
         wScrn=  0.000000 ICntrl=    3107 IOpCl=  0 I1Cent=           0 NGrid=           0
         NMat0=    1 NMatS0=      1 NMatT0=    0 NMatD0=    1 NMtDS0=    0 NMtDT0=    0
 Symmetry not used in FoFCou.
 End of G2Drv F.D. properties file   721 does not exist.
 End of G2Drv F.D. properties file   722 does not exist.
 End of G2Drv F.D. properties file   788 does not exist.
 Leave Link 1110 at Wed Apr 17 13:11:23 2019, MaxMem=  2147483648 cpu:       132.4
 (Enter /software/sse/easybuild/prefix/software/Gaussian/09.E.01-avx-nsc1-bdist/g09/l1002.exe)
 Minotr:  Closed shell wavefunction.
          IDoAtm=11111111111111
          Direct CPHF calculation.
          Differentiating once with respect to electric field.
                with respect to dipole field.
          Differentiating once with respect to nuclear coordinates.
          Requested convergence is 1.0D-08 RMS, and 1.0D-07 maximum.
          Secondary convergence is 1.0D-12 RMS, and 1.0D-12 maximum.
          NewPWx=T KeepS1=F KeepF1=F KeepIn=T MapXYZ=F SortEE=F KeepMc=T.
          MDV=    2147483313 using IRadAn=       2.
 Generate precomputed XC quadrature information.
 Keep R1 ints in memory in canonical form, NReq=171825798.
 FoFCou: FMM=F IPFlag=           0 FMFlag=           0 FMFlg1=           0
         NFxFlg=           0 DoJE=F BraDBF=F KetDBF=F FulRan=T
         wScrn=  0.000000 ICntrl=     600 IOpCl=  0 I1Cent=           0 NGrid=           0
         NMat0=    1 NMatS0=  18336 NMatT0=    0 NMatD0=    1 NMtDS0=    0 NMtDT0=    0
 Symmetry not used in FoFCou.
          Solving linear equations simultaneously, MaxMat=       0.
          There are    45 degrees of freedom in the 1st order CPHF.  IDoFFX=6 NUNeed=     3.
     42 vectors produced by pass  0 Test12= 1.48D-14 2.22D-09 XBig12= 1.22D+02 4.20D+00.
 AX will form    42 AO Fock derivatives at one time.
     42 vectors produced by pass  1 Test12= 1.48D-14 2.22D-09 XBig12= 9.80D+01 2.46D+00.
     42 vectors produced by pass  2 Test12= 1.48D-14 2.22D-09 XBig12= 3.93D+00 3.89D-01.
     42 vectors produced by pass  3 Test12= 1.48D-14 2.22D-09 XBig12= 7.45D-02 4.80D-02.
     42 vectors produced by pass  4 Test12= 1.48D-14 2.22D-09 XBig12= 4.55D-04 4.09D-03.
     42 vectors produced by pass  5 Test12= 1.48D-14 2.22D-09 XBig12= 1.60D-06 2.70D-04.
     31 vectors produced by pass  6 Test12= 1.48D-14 2.22D-09 XBig12= 3.28D-09 9.50D-06.
      3 vectors produced by pass  7 Test12= 1.48D-14 2.22D-09 XBig12= 5.39D-12 3.38D-07.
      3 vectors produced by pass  8 Test12= 1.48D-14 2.22D-09 XBig12= 9.57D-15 1.18D-08.
 InvSVY:  IOpt=1 It=  1 EMax= 1.78D-14
 Solved reduced A of dimension   289 with    45 vectors.
 FullF1:  Do perturbations    1 to     3.
 Isotropic polarizability for W=    0.000000       82.10 Bohr**3.
 End of Minotr F.D. properties file   721 does not exist.
 End of Minotr F.D. properties file   722 does not exist.
 End of Minotr F.D. properties file   788 does not exist.
 Leave Link 1002 at Wed Apr 17 13:11:33 2019, MaxMem=  2147483648 cpu:       162.5
 (Enter /software/sse/easybuild/prefix/software/Gaussian/09.E.01-avx-nsc1-bdist/g09/l601.exe)
 Copying SCF densities to generalized density rwf, IOpCl= 0 IROHF=0.

 **********************************************************************

            Population analysis using the SCF density.

 **********************************************************************

 Orbital symmetries:
       Occupied  (A) (A) (A) (A) (A) (A) (A) (A) (A) (A) (A) (A)
                 (A) (A) (A) (A) (A) (A) (A) (A) (A) (A) (A) (A)
                 (A) (A) (A) (A) (A) (A) (A) (A) (A) (A) (A) (A)
                 (A) (A) (A) (A) (A) (A) (A) (A) (A) (A)
       Virtual   (A) (A) (A) (A) (A) (A) (A) (A) (A) (A) (A) (A)
                 (A) (A) (A) (A) (A) (A) (A) (A) (A) (A) (A) (A)
                 (A) (A) (A) (A) (A) (A) (A) (A) (A) (A) (A) (A)
                 (A) (A) (A) (A) (A) (A) (A) (A) (A) (A) (A) (A)
                 (A) (A) (A) (A) (A) (A) (A) (A) (A) (A) (A) (A)
                 (A) (A) (A) (A) (A) (A) (A) (A) (A) (A) (A) (A)
                 (A) (A) (A) (A) (A) (A) (A) (A) (A) (A) (A) (A)
                 (A) (A) (A) (A) (A) (A) (A) (A) (A) (A) (A) (A)
                 (A) (A) (A) (A) (A) (A) (A) (A) (A) (A) (A) (A)
                 (A) (A) (A) (A) (A) (A) (A) (A) (A) (A) (A) (A)
                 (A) (A) (A) (A) (A) (A) (A) (A) (A) (A) (A) (A)
                 (A) (A) (A) (A) (A) (A) (A) (A) (A) (A) (A) (A)
                 (A)
 The electronic state is 1-A.
 Alpha  occ. eigenvalues -- -196.72303 -22.12861 -18.95450 -18.95136 -18.90157
 Alpha  occ. eigenvalues --  -18.90071 -18.63134 -18.63033 -18.63006 -14.30814
 Alpha  occ. eigenvalues --  -14.23426 -10.14652 -10.12805 -10.10674  -2.46291
 Alpha  occ. eigenvalues --   -1.49849  -1.49668  -1.48730  -0.92654  -0.82587
 Alpha  occ. eigenvalues --   -0.78379  -0.65444  -0.65096  -0.63843  -0.57086
 Alpha  occ. eigenvalues --   -0.53040  -0.49981  -0.46952  -0.35397  -0.34955
 Alpha  occ. eigenvalues --   -0.34059  -0.31552  -0.22956  -0.20493  -0.19643
 Alpha  occ. eigenvalues --   -0.18044  -0.17599  -0.13981  -0.13293  -0.11713
 Alpha  occ. eigenvalues --   -0.10597  -0.09902  -0.08608  -0.05364  -0.04575
 Alpha  occ. eigenvalues --   -0.00442
 Alpha virt. eigenvalues --    0.11844   0.14635   0.15266   0.17262   0.18576
 Alpha virt. eigenvalues --    0.19502   0.19760   0.20245   0.20731   0.21315
 Alpha virt. eigenvalues --    0.22157   0.24749   0.25835   0.26731   0.28212
 Alpha virt. eigenvalues --    0.30073   0.32547   0.33939   0.43033   0.44803
 Alpha virt. eigenvalues --    0.46958   0.52172   0.53192   0.55439   0.57359
 Alpha virt. eigenvalues --    0.64128   0.64906   0.66915   0.68539   0.70062
 Alpha virt. eigenvalues --    0.73187   0.74119   0.77480   0.82760   0.84047
 Alpha virt. eigenvalues --    0.88292   0.89541   0.92020   0.92966   0.93927
 Alpha virt. eigenvalues --    0.98458   1.00183   1.05409   1.06041   1.08104
 Alpha virt. eigenvalues --    1.09268   1.10486   1.13937   1.17444   1.18875
 Alpha virt. eigenvalues --    1.20807   1.22402   1.23671   1.24689   1.26615
 Alpha virt. eigenvalues --    1.28807   1.29731   1.33113   1.34441   1.36523
 Alpha virt. eigenvalues --    1.38756   1.40547   1.44979   1.45390   1.49161
 Alpha virt. eigenvalues --    1.51547   1.52525   1.53725   1.56847   1.58701
 Alpha virt. eigenvalues --    1.61724   1.64472   1.69003   1.69226   1.72881
 Alpha virt. eigenvalues --    1.75114   1.77391   1.82000   1.83541   1.85995
 Alpha virt. eigenvalues --    1.86846   1.93301   1.94590   1.97712   1.99146
 Alpha virt. eigenvalues --    2.02263   2.04379   2.05410   2.06828   2.10054
 Alpha virt. eigenvalues --    2.10364   2.13439   2.13811   2.17571   2.20444
 Alpha virt. eigenvalues --    2.20945   2.23533   2.26279   2.27038   2.29156
 Alpha virt. eigenvalues --    2.32478   2.34375   2.36421   2.39766   2.46917
 Alpha virt. eigenvalues --    2.48154   2.50510   2.53809   2.55055   2.56697
 Alpha virt. eigenvalues --    2.57009   2.59718   2.64051   2.65108   2.67531
 Alpha virt. eigenvalues --    2.69915   2.72214   2.77060   2.78908   2.85294
 Alpha virt. eigenvalues --    2.87128   2.88081   2.91128   2.97055   2.99240
 Alpha virt. eigenvalues --    3.05212   3.14163   3.22343   3.27624   3.28882
 Alpha virt. eigenvalues --    3.34042   3.39008   3.48947   3.72891   3.86362
 Alpha virt. eigenvalues --    3.90131   3.96408   3.98064   4.13110   4.23427
 Alpha virt. eigenvalues --    4.24383   4.29568   4.60004   4.80001   8.20431
          Condensed to atoms (all electrons):
               1          2          3          4          5          6
     1  N    6.714706   0.330784   0.331413  -0.076300  -0.042520   0.347870
     2  C    0.330784   4.717956  -0.103027   0.481257   0.362446  -0.028481
     3  C    0.331413  -0.103027   4.944058  -0.055376   0.003420  -0.029752
     4  N   -0.076300   0.481257  -0.055376   6.691252  -0.033352   0.005141
     5  H   -0.042520   0.362446   0.003420  -0.033352   0.533231  -0.000254
     6  H    0.347870  -0.028481  -0.029752   0.005141  -0.000254   0.442918
     7  C   -0.049314  -0.096966   0.548417   0.438676   0.005560   0.005634
     8  H   -0.046536   0.004733   0.374393   0.004200  -0.000087  -0.001554
     9  H    0.003610   0.008360  -0.053998  -0.036179  -0.000107  -0.000086
    10  V   -0.002692  -0.007375   0.004263   0.072579  -0.011947   0.000556
    11  O    0.000282   0.000334  -0.000047  -0.013512   0.019242   0.000004
    12  O    0.000016  -0.000975  -0.000026   0.000522  -0.000376   0.000000
    13  O   -0.000003  -0.000219   0.000001  -0.000175  -0.000453   0.000000
    14  O   -0.000007   0.000044   0.000320  -0.002517  -0.000023   0.000000
               7          8          9         10         11         12
     1  N   -0.049314  -0.046536   0.003610  -0.002692   0.000282   0.000016
     2  C   -0.096966   0.004733   0.008360  -0.007375   0.000334  -0.000975
     3  C    0.548417   0.374393  -0.053998   0.004263  -0.000047  -0.000026
     4  N    0.438676   0.004200  -0.036179   0.072579  -0.013512   0.000522
     5  H    0.005560  -0.000087  -0.000107  -0.011947   0.019242  -0.000376
     6  H    0.005634  -0.001554  -0.000086   0.000556   0.000004   0.000000
     7  C    4.715351  -0.029750   0.387099  -0.012845   0.000642  -0.000683
     8  H   -0.029750   0.603890  -0.000109   0.000384   0.000000  -0.000000
     9  H    0.387099  -0.000109   0.554219  -0.001689  -0.000004  -0.000231
    10  V   -0.012845   0.000384  -0.001689  20.984756   0.127176   0.301157
    11  O    0.000642   0.000000  -0.000004   0.127176   8.361320  -0.000858
    12  O   -0.000683  -0.000000  -0.000231   0.301157  -0.000858   8.341302
    13  O   -0.000002  -0.000000  -0.000003   0.138084   0.001754   0.000337
    14  O    0.001647   0.000000   0.005259   0.292162  -0.000963   0.003025
              13         14
     1  N   -0.000003  -0.000007
     2  C   -0.000219   0.000044
     3  C    0.000001   0.000320
     4  N   -0.000175  -0.002517
     5  H   -0.000453  -0.000023
     6  H    0.000000   0.000000
     7  C   -0.000002   0.001647
     8  H   -0.000000   0.000000
     9  H   -0.000003   0.005259
    10  V    0.138084   0.292162
    11  O    0.001754  -0.000963
    12  O    0.000337   0.003025
    13  O    8.291464   0.000864
    14  O    0.000864   8.358983
 Mulliken charges:
               1
     1  N   -0.511311
     2  C    0.331130
     3  C    0.035938
     4  N   -0.476217
     5  H    0.165219
     6  H    0.258003
     7  C    0.086534
     8  H    0.090436
     9  H    0.133859
    10  V    1.115431
    11  O   -0.495371
    12  O   -0.643209
    13  O   -0.431648
    14  O   -0.658795
 Sum of Mulliken charges =  -1.00000
 Mulliken charges with hydrogens summed into heavy atoms:
               1
     1  N   -0.253308
     2  C    0.496349
     3  C    0.126374
     4  N   -0.476217
     7  C    0.220393
    10  V    1.115431
    11  O   -0.495371
    12  O   -0.643209
    13  O   -0.431648
    14  O   -0.658795
 APT charges:
               1
     1  N   -0.354710
     2  C    0.225137
     3  C   -0.005168
     4  N   -0.305390
     5  H    0.141817
     6  H    0.219352
     7  C    0.072050
     8  H    0.049830
     9  H    0.102854
    10  V    1.703369
    11  O   -0.528435
    12  O   -0.892935
    13  O   -0.516117
    14  O   -0.911656
 Sum of APT charges =  -1.00000
 APT charges with hydrogens summed into heavy atoms:
               1
     1  N   -0.135357
     2  C    0.366954
     3  C    0.044662
     4  N   -0.305390
     7  C    0.174904
    10  V    1.703369
    11  O   -0.528435
    12  O   -0.892935
    13  O   -0.516117
    14  O   -0.911656
 Electronic spatial extent (au):  <R**2>=           1685.7772
 Charge=             -1.0000 electrons
 Dipole moment (field-independent basis, Debye):
    X=            -12.8702    Y=              2.0382    Z=              0.0943  Tot=             13.0309
 Quadrupole moment (field-independent basis, Debye-Ang):
   XX=            -69.9266   YY=            -74.8714   ZZ=            -80.1784
   XY=             -5.6057   XZ=             -0.1992   YZ=              3.0931
 Traceless Quadrupole moment (field-independent basis, Debye-Ang):
   XX=              5.0656   YY=              0.1207   ZZ=             -5.1863
   XY=             -5.6057   XZ=             -0.1992   YZ=              3.0931
 Octapole moment (field-independent basis, Debye-Ang**2):
  XXX=            -63.6330  YYY=              8.7550  ZZZ=             -9.3518  XYY=            -28.7852
  XXY=              8.6138  XXZ=              4.3162  XZZ=             -3.4715  YZZ=              9.1056
  YYZ=              8.5134  XYZ=             -2.6041
 Hexadecapole moment (field-independent basis, Debye-Ang**3):
 XXXX=          -1300.7897 YYYY=           -445.7323 ZZZZ=           -250.6597 XXXY=            -88.4776
 XXXZ=             -0.4859 YYYX=            -18.6352 YYYZ=              2.8208 ZZZX=            -15.8607
 ZZZY=              3.9340 XXYY=           -304.8613 XXZZ=           -312.8955 YYZZ=           -123.4472
 XXYZ=             14.1968 YYXZ=              7.4401 ZZXY=              6.6097
 N-N= 7.597442100318D+02 E-N=-5.010515720631D+03  KE= 1.464834446923D+03
  Exact polarizability: 100.652   1.853  86.078   0.377   3.836  59.584
 Approx polarizability: 147.389   4.354 171.101  -0.646   9.860 126.894
 No NMR shielding tensors so no spin-rotation constants.
 Leave Link  601 at Wed Apr 17 13:11:34 2019, MaxMem=  2147483648 cpu:         3.3
 (Enter /software/sse/easybuild/prefix/software/Gaussian/09.E.01-avx-nsc1-bdist/g09/l701.exe)
 Compute integral second derivatives.
 ... and contract with generalized density number  0.
 R6Disp: Adding Grimme-D3 dispersion energy 2nd derivatives to the Hessian.
   1 Symmetry operations used in ECPInt.
 ECPInt:  NShTT=    1596 NPrTT=   10956 LenC2=    1512 LenP2D=    6871.
 LDataN:  DoStor=T MaxTD1= 8 Len=  415
 Leave Link  701 at Wed Apr 17 13:11:34 2019, MaxMem=  2147483648 cpu:         4.7
 (Enter /software/sse/easybuild/prefix/software/Gaussian/09.E.01-avx-nsc1-bdist/g09/l702.exe)
 L702 exits ... SP integral derivatives will be done elsewhere.
 Leave Link  702 at Wed Apr 17 13:11:34 2019, MaxMem=  2147483648 cpu:         0.2
 (Enter /software/sse/easybuild/prefix/software/Gaussian/09.E.01-avx-nsc1-bdist/g09/l703.exe)
 Compute integral second derivatives, UseDBF=F ICtDFT=           0.
 Integral derivatives from FoFJK, PRISM(SPDF).
 Calling FoFJK, ICntrl=    100127 FMM=F ISym2X=0 I1Cent= 0 IOpClX= 0 NMat=1 NMatS=1 NMatT=0.
 FoFJK:  IHMeth= 1 ICntrl=  100127 DoSepK=F KAlg= 0 I1Cent=   0 FoldK=F
 IRaf=         0 NMat=   1 IRICut=       1 DoRegI=T DoRafI=F ISym2E= 0.
 FoFCou: FMM=F IPFlag=           0 FMFlag=      100000 FMFlg1=         800
         NFxFlg=           0 DoJE=F BraDBF=F KetDBF=F FulRan=T
         wScrn=  0.000000 ICntrl=  100127 IOpCl=  0 I1Cent=           0 NGrid=           0
         NMat0=    1 NMatS0=      1 NMatT0=    0 NMatD0=    1 NMtDS0=    0 NMtDT0=    0
 Symmetry not used in FoFCou.
 Leave Link  703 at Wed Apr 17 13:11:46 2019, MaxMem=  2147483648 cpu:       200.2
 (Enter /software/sse/easybuild/prefix/software/Gaussian/09.E.01-avx-nsc1-bdist/g09/l716.exe)
 Dipole        =-5.06350893D+00 8.01885227D-01 3.70943737D-02
 Polarizability= 1.00652137D+02 1.85303552D+00 8.60781765D+01
                 3.76620099D-01 3.83634674D+00 5.95844879D+01
 Full mass-weighted force constant matrix:
 Low frequencies ---   -8.7541   -6.7338   -0.0062   -0.0056   -0.0032    1.7019
 Low frequencies ---   49.8834   69.2301   90.7142
 Diagonal vibrational polarizability:
       34.9408296      11.4865400      30.1621649
 Harmonic frequencies (cm**-1), IR intensities (KM/Mole), Raman scattering
 activities (A**4/AMU), depolarization ratios for plane and unpolarized
 incident light, reduced masses (AMU), force constants (mDyne/A),
 and normal coordinates:
                      1                      2                      3
                      A                      A                      A
 Frequencies --     49.8651                69.2161                90.7086
 Red. masses --      4.6872                 6.9715                 6.7757
 Frc consts  --      0.0069                 0.0197                 0.0328
 IR Inten    --      0.1240                 1.3798                 0.4032
  Atom  AN      X      Y      Z        X      Y      Z        X      Y      Z
     1   7    -0.02  -0.05   0.10    -0.04   0.02  -0.29     0.11   0.15  -0.05
     2   6    -0.03  -0.04   0.26    -0.06   0.05  -0.04     0.13  -0.08   0.06
     3   6     0.03   0.02  -0.23     0.03  -0.03  -0.14    -0.10   0.20  -0.10
     4   7     0.01   0.02   0.06    -0.00   0.02   0.25    -0.03  -0.18   0.09
     5   1    -0.06  -0.07   0.48    -0.12   0.09  -0.11     0.29  -0.16   0.07
     6   1    -0.04  -0.09   0.19    -0.08   0.04  -0.54     0.22   0.27  -0.10
     7   6     0.05   0.06  -0.25     0.06  -0.02   0.19    -0.18  -0.01  -0.00
     8   1     0.05   0.03  -0.42     0.06  -0.05  -0.28    -0.16   0.37  -0.19
     9   1     0.10   0.13  -0.47     0.12  -0.04   0.35    -0.37  -0.07  -0.00
    10  23     0.00   0.00   0.03     0.01   0.00   0.03     0.02  -0.04   0.01
    11   8    -0.02  -0.03  -0.04    -0.05   0.04   0.17    -0.25  -0.07  -0.05
    12   8     0.09   0.13   0.05     0.30  -0.12  -0.01     0.15  -0.03   0.01
    13   8    -0.00  -0.05  -0.16    -0.02  -0.03  -0.13    -0.19   0.16  -0.00
    14   8    -0.11  -0.07   0.11    -0.23   0.07  -0.07     0.26  -0.02   0.01
                      4                      5                      6
                      A                      A                      A
 Frequencies --    191.1381               203.4612               238.2573
 Red. masses --      9.5311                 9.5571                 8.1542
 Frc consts  --      0.2052                 0.2331                 0.2727
 IR Inten    --      5.3745                10.8836                 4.8696
  Atom  AN      X      Y      Z        X      Y      Z        X      Y      Z
     1   7    -0.11   0.01   0.05     0.28   0.01   0.02    -0.11  -0.01   0.08
     2   6    -0.09  -0.07  -0.17     0.28  -0.01  -0.15    -0.13   0.20  -0.15
     3   6    -0.23   0.02   0.09     0.21   0.01   0.09     0.04  -0.04   0.09
     4   7    -0.15  -0.09  -0.25     0.19  -0.04  -0.20     0.00   0.28  -0.23
     5   1    -0.03  -0.10  -0.15     0.35  -0.04  -0.17    -0.24   0.26  -0.17
     6   1    -0.05   0.04   0.17     0.31   0.03   0.10    -0.20  -0.12   0.19
     7   6    -0.26  -0.04  -0.12     0.17  -0.03  -0.08     0.11   0.16  -0.13
     8   1    -0.27   0.06   0.25     0.18   0.03   0.22     0.09  -0.19   0.24
     9   1    -0.38  -0.07  -0.14     0.15  -0.04  -0.08     0.24   0.21  -0.18
    10  23     0.05   0.01   0.01    -0.08  -0.02   0.01    -0.00  -0.06   0.06
    11   8     0.10   0.14   0.38    -0.22   0.09   0.29    -0.15  -0.11  -0.10
    12   8     0.23   0.13   0.02    -0.10   0.05   0.02     0.31  -0.19   0.03
    13   8     0.12  -0.12  -0.20    -0.18   0.06  -0.14    -0.13   0.07   0.07
    14   8     0.10  -0.05   0.09    -0.22  -0.09   0.07     0.06  -0.06   0.07
                      7                      8                      9
                      A                      A                      A
 Frequencies --    254.6985               275.8011               325.0634
 Red. masses --     10.7568                16.0040                19.8925
 Frc consts  --      0.4111                 0.7172                 1.2384
 IR Inten    --      1.2938                 0.9597                49.2532
  Atom  AN      X      Y      Z        X      Y      Z        X      Y      Z
     1   7    -0.09   0.01  -0.04     0.09  -0.01   0.06    -0.13   0.02   0.00
     2   6    -0.11   0.15   0.10     0.10  -0.09  -0.09    -0.10  -0.01  -0.03
     3   6     0.07  -0.01  -0.03    -0.02   0.01   0.04    -0.14   0.02   0.02
     4   7     0.02   0.20   0.15     0.02  -0.11  -0.14    -0.07   0.00  -0.04
     5   1    -0.25   0.21   0.14     0.16  -0.12  -0.11    -0.14   0.00  -0.02
     6   1    -0.18  -0.07  -0.08     0.14   0.04   0.09    -0.11   0.03   0.04
     7   6     0.14   0.12   0.10    -0.05  -0.06  -0.10    -0.13   0.03  -0.02
     8   1     0.13  -0.12  -0.12    -0.05   0.07   0.12    -0.14   0.02   0.05
     9   1     0.26   0.14   0.15    -0.15  -0.08  -0.14    -0.16   0.02  -0.02
    10  23     0.00  -0.05  -0.02    -0.03   0.10   0.25     0.39   0.00   0.02
    11   8    -0.11   0.02   0.23     0.02  -0.06  -0.25    -0.14  -0.16   0.04
    12   8    -0.30  -0.08  -0.02    -0.10  -0.34   0.20    -0.36  -0.25  -0.03
    13   8    -0.05  -0.10  -0.37     0.02  -0.17  -0.42     0.11   0.48  -0.17
    14   8     0.44  -0.06   0.02     0.02   0.48  -0.14    -0.37  -0.12   0.15
                     10                     11                     12
                      A                      A                      A
 Frequencies --    344.0770               474.7594               569.5552
 Red. masses --     16.4423                 1.4806                18.2416
 Frc consts  --      1.1469                 0.1966                 3.4865
 IR Inten    --      5.1848                81.3059                28.5484
  Atom  AN      X      Y      Z        X      Y      Z        X      Y      Z
     1   7     0.05  -0.01   0.01     0.01   0.04  -0.17    -0.05  -0.00  -0.01
     2   6     0.05  -0.06   0.04     0.00  -0.01   0.05    -0.04   0.01  -0.02
     3   6     0.00   0.01  -0.04    -0.00  -0.01   0.06    -0.04  -0.01   0.01
     4   7    -0.00  -0.08   0.03    -0.00  -0.00  -0.00     0.01   0.02   0.02
     5   1     0.10  -0.08   0.02    -0.00  -0.03   0.14    -0.04   0.02  -0.02
     6   1     0.07   0.03  -0.04    -0.02  -0.20   0.94    -0.05  -0.03   0.12
     7   6    -0.02  -0.05   0.01    -0.00  -0.00   0.00    -0.02   0.03  -0.01
     8   1    -0.01   0.05  -0.08    -0.00  -0.01   0.06    -0.03  -0.03  -0.03
     9   1    -0.05  -0.07   0.03     0.00   0.02  -0.09    -0.03   0.04  -0.07
    10  23    -0.10   0.14  -0.04    -0.00   0.00   0.00     0.18  -0.20   0.07
    11   8     0.16   0.43  -0.16     0.00  -0.00  -0.00     0.10   0.73  -0.24
    12   8     0.04  -0.52  -0.25     0.00  -0.00  -0.00    -0.07   0.07   0.21
    13   8     0.01   0.03  -0.04     0.00  -0.00  -0.00    -0.41  -0.11   0.02
    14   8     0.05  -0.23   0.53    -0.00   0.00   0.00    -0.07  -0.08  -0.21
                     13                     14                     15
                      A                      A                      A
 Frequencies --    625.6664               640.6742               671.8341
 Red. masses --     19.3147                 2.8189                 2.7649
 Frc consts  --      4.4547                 0.6817                 0.7353
 IR Inten    --     69.1501                12.1578                 5.6317
  Atom  AN      X      Y      Z        X      Y      Z        X      Y      Z
     1   7     0.00  -0.01   0.01     0.00   0.03  -0.15     0.00  -0.02   0.09
     2   6    -0.00   0.01   0.02    -0.00  -0.02   0.09     0.01   0.05  -0.23
     3   6     0.00  -0.00  -0.05    -0.01  -0.06   0.26    -0.00  -0.01   0.04
     4   7    -0.02   0.01  -0.01    -0.00  -0.02   0.08    -0.01  -0.06   0.25
     5   1     0.05   0.01  -0.06     0.00  -0.04   0.15     0.02   0.11  -0.54
     6   1    -0.01  -0.05   0.11     0.02   0.16  -0.71    -0.01  -0.09   0.39
     7   6    -0.01  -0.02   0.04     0.00   0.05  -0.21     0.00   0.02  -0.11
     8   1     0.01  -0.01  -0.03    -0.01  -0.07   0.32     0.01   0.09  -0.37
     9   1    -0.01  -0.03   0.07     0.01   0.09  -0.41     0.02   0.11  -0.47
    10  23    -0.23  -0.22   0.07    -0.01  -0.00   0.00    -0.00   0.00  -0.00
    11   8     0.39   0.09  -0.01     0.01   0.00  -0.00    -0.00  -0.00   0.01
    12   8     0.04   0.01   0.17    -0.00  -0.00  -0.00    -0.01   0.00  -0.01
    13   8     0.27   0.71  -0.24     0.01   0.02  -0.00     0.01   0.00  -0.00
    14   8     0.06  -0.10  -0.15     0.01  -0.01  -0.00     0.01  -0.00   0.00
                     16                     17                     18
                      A                      A                      A
 Frequencies --    695.7785               861.2597               871.5351
 Red. masses --      1.2370                 1.3230                 1.2787
 Frc consts  --      0.3528                 0.5782                 0.5723
 IR Inten    --     23.7954                23.0572                 3.4817
  Atom  AN      X      Y      Z        X      Y      Z        X      Y      Z
     1   7     0.00  -0.00   0.01    -0.00  -0.00   0.02    -0.00  -0.00   0.00
     2   6     0.00  -0.00   0.01    -0.00   0.02  -0.15    -0.00  -0.01   0.05
     3   6     0.00   0.02  -0.11     0.00   0.00   0.00     0.00  -0.01   0.05
     4   7    -0.00  -0.01   0.07     0.01  -0.01   0.05     0.00  -0.00   0.01
     5   1     0.01   0.05  -0.24    -0.04  -0.18   0.90     0.01   0.07  -0.31
     6   1    -0.00  -0.02   0.09     0.01   0.00   0.03    -0.01  -0.03   0.08
     7   6     0.00   0.01  -0.05     0.00   0.02  -0.05     0.00   0.03  -0.14
     8   1    -0.02  -0.21   0.92     0.00  -0.03   0.10     0.01   0.05  -0.24
     9   1    -0.00  -0.03   0.11    -0.03  -0.08   0.33    -0.07  -0.22   0.87
    10  23     0.00   0.00  -0.00    -0.00   0.00  -0.00     0.00  -0.00  -0.00
    11   8    -0.00   0.00   0.00     0.00  -0.00  -0.00    -0.00   0.00   0.00
    12   8    -0.00   0.00  -0.00    -0.00  -0.00   0.00    -0.00   0.00   0.00
    13   8    -0.00  -0.00   0.00    -0.00   0.00   0.00     0.00  -0.00   0.00
    14   8     0.00   0.00   0.00     0.00  -0.00   0.00    -0.00   0.00   0.00
                     19                     20                     21
                      A                      A                      A
 Frequencies --    932.6915               937.9025               950.3928
 Red. masses --      5.5197                12.2899                 3.9806
 Frc consts  --      2.8291                 6.3696                 2.1184
 IR Inten    --     17.9561                55.8864                 7.9010
  Atom  AN      X      Y      Z        X      Y      Z        X      Y      Z
     1   7     0.10  -0.21  -0.04     0.15  -0.17  -0.03    -0.21   0.13   0.02
     2   6     0.07  -0.08  -0.01     0.07   0.08   0.01    -0.10  -0.23  -0.05
     3   6    -0.30  -0.08  -0.02    -0.18  -0.09  -0.02     0.08   0.10   0.02
     4   7     0.26   0.05   0.02     0.03   0.07   0.01     0.22  -0.09  -0.02
     5   1    -0.43   0.17  -0.03    -0.14   0.18   0.09    -0.15  -0.21  -0.11
     6   1     0.41   0.09   0.02     0.22  -0.10  -0.02    -0.01   0.33   0.07
     7   6    -0.10   0.30   0.07    -0.08   0.11   0.02     0.08   0.12   0.03
     8   1    -0.26  -0.17  -0.05    -0.26   0.09   0.04     0.35  -0.49  -0.10
     9   1    -0.23   0.29   0.03     0.05   0.16   0.04    -0.43  -0.01  -0.08
    10  23    -0.01   0.01  -0.01    -0.02  -0.06   0.02    -0.02  -0.00  -0.00
    11   8     0.11  -0.06   0.03    -0.49   0.26  -0.12    -0.07   0.04  -0.01
    12   8     0.00  -0.01   0.00     0.00   0.00   0.05     0.00  -0.00   0.02
    13   8    -0.12   0.02  -0.01     0.55  -0.07   0.06     0.08  -0.01   0.01
    14   8    -0.00   0.02   0.02     0.00  -0.03  -0.04    -0.00  -0.01  -0.01
                     22                     23                     24
                      A                      A                      A
 Frequencies --   1000.9609              1009.8206              1067.1458
 Red. masses --     15.3764                18.9498                 1.6034
 Frc consts  --      9.0770                11.3853                 1.0758
 IR Inten    --    179.7916               288.3826                73.0656
  Atom  AN      X      Y      Z        X      Y      Z        X      Y      Z
     1   7    -0.04   0.01  -0.00     0.01  -0.01  -0.00     0.03  -0.09  -0.02
     2   6     0.03   0.02  -0.00    -0.00   0.05   0.02    -0.08  -0.01  -0.00
     3   6     0.02  -0.03  -0.00     0.04   0.02   0.01     0.08   0.15   0.03
     4   7    -0.01   0.00  -0.00    -0.03   0.01   0.01     0.06  -0.01   0.00
     5   1     0.28  -0.11   0.04    -0.02   0.07  -0.06    -0.54   0.21   0.02
     6   1    -0.10  -0.05  -0.02    -0.10  -0.11  -0.06    -0.14  -0.27  -0.06
     7   6     0.01   0.04   0.02    -0.01  -0.05  -0.00     0.00  -0.05  -0.01
     8   1     0.11  -0.23  -0.04     0.02   0.09   0.01    -0.11   0.59   0.13
     9   1    -0.13   0.03  -0.08    -0.14  -0.06  -0.12    -0.34  -0.14  -0.07
    10  23     0.01  -0.26  -0.03     0.00  -0.02  -0.35    -0.00  -0.01   0.00
    11   8    -0.00   0.04  -0.00    -0.00  -0.00   0.04    -0.00   0.00  -0.00
    12   8    -0.01   0.14  -0.35     0.03  -0.19   0.79    -0.00   0.01  -0.02
    13   8     0.01   0.02   0.00     0.00   0.00   0.02    -0.00   0.00   0.00
    14   8    -0.04   0.62   0.44    -0.02   0.25   0.25    -0.00   0.01   0.01
                     25                     26                     27
                      A                      A                      A
 Frequencies --   1087.8838              1151.2780              1200.5285
 Red. masses --      1.3947                 1.3891                 5.0034
 Frc consts  --      0.9725                 1.0848                 4.2487
 IR Inten    --      8.2181                11.7297                 3.6561
  Atom  AN      X      Y      Z        X      Y      Z        X      Y      Z
     1   7     0.02   0.06   0.01    -0.09  -0.05  -0.01    -0.16   0.15   0.03
     2   6    -0.10  -0.09  -0.02     0.06  -0.04  -0.01     0.10   0.12   0.03
     3   6    -0.06  -0.00  -0.00    -0.04   0.07   0.01    -0.15  -0.16  -0.04
     4   7    -0.00  -0.01  -0.00     0.03  -0.04  -0.01     0.32   0.13   0.04
     5   1    -0.26  -0.01  -0.03     0.46  -0.24  -0.03     0.13   0.14   0.03
     6   1     0.34   0.36   0.09    -0.43  -0.38  -0.09    -0.25   0.09   0.02
     7   6     0.08  -0.03  -0.01     0.04   0.08   0.02    -0.04  -0.30  -0.07
     8   1    -0.23   0.37   0.07    -0.18   0.37   0.08    -0.44   0.42   0.09
     9   1     0.66   0.11   0.08     0.39   0.17   0.07    -0.19  -0.37  -0.09
    10  23    -0.00  -0.01  -0.01    -0.00   0.00  -0.00    -0.01  -0.00   0.00
    11   8    -0.00   0.00  -0.00    -0.00  -0.00   0.00    -0.01  -0.00   0.00
    12   8     0.00   0.00   0.00     0.00  -0.00   0.01    -0.00   0.00  -0.01
    13   8     0.00   0.00   0.00     0.00  -0.00  -0.00     0.00  -0.00   0.00
    14   8     0.00   0.02   0.01     0.00  -0.00  -0.00    -0.00   0.00   0.00
                     28                     29                     30
                      A                      A                      A
 Frequencies --   1266.3786              1391.1196              1456.4486
 Red. masses --      1.3832                 4.2617                 2.9618
 Frc consts  --      1.3070                 4.8591                 3.7016
 IR Inten    --      1.9436                 3.1917                18.6930
  Atom  AN      X      Y      Z        X      Y      Z        X      Y      Z
     1   7     0.03  -0.04  -0.01     0.01  -0.10  -0.02     0.19   0.19   0.05
     2   6    -0.11  -0.04  -0.01     0.00  -0.19  -0.04    -0.13  -0.11  -0.03
     3   6     0.03  -0.06  -0.01     0.08   0.18   0.04     0.06  -0.17  -0.04
     4   7    -0.02   0.09   0.02     0.06   0.29   0.06     0.04   0.02   0.01
     5   1     0.55  -0.37  -0.06     0.26  -0.33  -0.07    -0.13  -0.15  -0.05
     6   1     0.26   0.18   0.05     0.17   0.01   0.01    -0.62  -0.59  -0.14
     7   6     0.06   0.03   0.01    -0.27  -0.15  -0.04    -0.13   0.07   0.01
     8   1    -0.16   0.35   0.08     0.32  -0.33  -0.07    -0.05   0.09   0.02
     9   1    -0.50  -0.12  -0.06     0.54   0.08   0.05     0.05   0.15   0.04
    10  23     0.00   0.00   0.00     0.00  -0.00  -0.00    -0.00  -0.00  -0.00
    11   8    -0.00  -0.00   0.00    -0.01   0.00   0.00    -0.00   0.00  -0.00
    12   8    -0.00  -0.00   0.00    -0.00   0.00  -0.00    -0.00   0.00  -0.00
    13   8    -0.00  -0.00  -0.00     0.00  -0.00   0.00     0.00   0.00   0.00
    14   8    -0.00  -0.01  -0.00     0.00   0.00   0.00     0.00   0.00   0.00
                     31                     32                     33
                      A                      A                      A
 Frequencies --   1518.9192              1587.2372              3278.6935
 Red. masses --      3.7098                 4.0494                 1.0915
 Frc consts  --      5.0428                 6.0107                 6.9132
 IR Inten    --     21.2260                11.1806                 0.8168
  Atom  AN      X      Y      Z        X      Y      Z        X      Y      Z
     1   7    -0.16   0.02   0.00     0.07   0.07   0.02     0.00   0.00   0.00
     2   6     0.28  -0.16  -0.03     0.14  -0.21  -0.04    -0.00  -0.01  -0.00
     3   6     0.19  -0.17  -0.03    -0.23   0.09   0.01    -0.07  -0.03  -0.01
     4   7    -0.13   0.09   0.02    -0.14   0.18   0.03    -0.00   0.00   0.00
     5   1    -0.46   0.20   0.02    -0.32  -0.03  -0.02     0.04   0.08   0.02
     6   1     0.08   0.27   0.06    -0.36  -0.35  -0.09    -0.01   0.00   0.00
     7   6    -0.08   0.11   0.02     0.27  -0.07  -0.01    -0.01   0.04   0.01
     8   1    -0.13   0.60   0.13    -0.10  -0.33  -0.08     0.80   0.34   0.10
     9   1    -0.12   0.14   0.03    -0.39  -0.29  -0.09     0.13  -0.44  -0.10
    10  23     0.00  -0.00   0.00     0.00  -0.00  -0.00    -0.00   0.00  -0.00
    11   8    -0.00   0.00  -0.00    -0.00   0.00  -0.00    -0.00  -0.00  -0.00
    12   8     0.00  -0.00   0.00     0.00  -0.00   0.00    -0.00  -0.00   0.00
    13   8     0.00   0.00   0.00     0.00   0.00   0.00    -0.00  -0.00   0.00
    14   8     0.00  -0.00  -0.00     0.00  -0.00  -0.00    -0.00  -0.00  -0.00
                     34                     35                     36
                      A                      A                      A
 Frequencies --   3284.2582              3301.7795              3688.6144
 Red. masses --      1.0995                 1.1064                 1.0813
 Frc consts  --      6.9876                 7.1064                 8.6683
 IR Inten    --     13.9214                 8.4037                46.9002
  Atom  AN      X      Y      Z        X      Y      Z        X      Y      Z
     1   7     0.00   0.00   0.00     0.00   0.00   0.00    -0.05   0.05   0.01
     2   6    -0.04  -0.08  -0.02     0.00   0.01   0.00     0.00   0.00   0.00
     3   6     0.00   0.00   0.00    -0.04  -0.01  -0.00    -0.00  -0.00  -0.00
     4   7    -0.00   0.00   0.00     0.00   0.00   0.00     0.00  -0.00  -0.00
     5   1     0.44   0.86   0.18    -0.04  -0.08  -0.02    -0.01  -0.01  -0.00
     6   1     0.01  -0.02  -0.00    -0.01   0.01   0.00     0.70  -0.69  -0.13
     7   6     0.00  -0.01  -0.00     0.03  -0.08  -0.02     0.00  -0.00  -0.00
     8   1    -0.03  -0.01  -0.00     0.43   0.18   0.05     0.01   0.01   0.00
     9   1    -0.04   0.12   0.03    -0.25   0.81   0.18    -0.00   0.00   0.00
    10  23     0.00   0.00  -0.00     0.00  -0.00   0.00    -0.00   0.00   0.00
    11   8    -0.00  -0.00   0.00    -0.00  -0.00   0.00     0.00   0.00   0.00
    12   8    -0.00  -0.00   0.00    -0.00   0.00  -0.00     0.00   0.00  -0.00
    13   8    -0.00  -0.00  -0.00    -0.00  -0.00   0.00     0.00   0.00  -0.00
    14   8     0.00  -0.00  -0.00     0.00   0.00   0.00     0.00  -0.00  -0.00

 -------------------
 - Thermochemistry -
 -------------------
 Temperature   298.150 Kelvin.  Pressure   1.00000 Atm.
 Atom     1 has atomic number  7 and mass  14.00307
 Atom     2 has atomic number  6 and mass  12.00000
 Atom     3 has atomic number  6 and mass  12.00000
 Atom     4 has atomic number  7 and mass  14.00307
 Atom     5 has atomic number  1 and mass   1.00783
 Atom     6 has atomic number  1 and mass   1.00783
 Atom     7 has atomic number  6 and mass  12.00000
 Atom     8 has atomic number  1 and mass   1.00783
 Atom     9 has atomic number  1 and mass   1.00783
 Atom    10 has atomic number 23 and mass  50.94396
 Atom    11 has atomic number  8 and mass  15.99491
 Atom    12 has atomic number  8 and mass  15.99491
 Atom    13 has atomic number  8 and mass  15.99491
 Atom    14 has atomic number  8 and mass  15.99491
 Molecular mass:   182.96107 amu.
 Principal axes and moments of inertia in atomic units:
                           1         2         3
     Eigenvalues --   789.348302344.268842662.21163
           X            1.00000   0.00164   0.00029
           Y           -0.00164   0.99959   0.02858
           Z           -0.00024  -0.02858   0.99959
 This molecule is an asymmetric top.
 Rotational symmetry number  1.
 Warning -- assumption of classical behavior for rotation
           may cause significant error
 Rotational temperatures (Kelvin)      0.10973     0.03695     0.03253
 Rotational constants (GHZ):           2.28637     0.76985     0.67791
 Zero-point vibrational energy     224691.0 (Joules/Mol)
                                   53.70244 (Kcal/Mol)
 Warning -- explicit consideration of  12 degrees of freedom as
           vibrations may cause significant error
 Vibrational temperatures:     71.74    99.59   130.51   275.00   292.73
          (Kelvin)            342.80   366.45   396.82   467.69   495.05
                              683.07   819.46   900.19   921.79   966.62
                             1001.07  1239.16  1253.94  1341.93  1349.43
                             1367.40  1440.16  1452.90  1535.38  1565.22
                             1656.43  1727.29  1822.03  2001.51  2095.50
                             2185.38  2283.68  4717.30  4725.31  4750.52
                             5307.09
 
 Zero-point correction=                           0.085580 (Hartree/Particle)
 Thermal correction to Energy=                    0.095523
 Thermal correction to Enthalpy=                  0.096467
 Thermal correction to Gibbs Free Energy=         0.049023
 Sum of electronic and zero-point Energies=          -1471.109885
[...]
 --------------------------                            --------------------------
 ! Name  Definition              Value          Derivative Info.                !
 --------------------------------------------------------------------------------
 ! R1    R(1,2)                  1.361          -DE/DX =    0.0                 !
 ! R2    R(1,3)                  1.3878         -DE/DX =    0.0                 !
 ! R3    R(1,6)                  1.0066         -DE/DX =    0.0                 !
 ! R4    R(2,4)                  1.3142         -DE/DX =    0.0                 !
 ! R5    R(2,5)                  1.0801         -DE/DX =    0.0                 !
 ! R6    R(3,7)                  1.3701         -DE/DX =    0.0                 !
 ! R7    R(3,8)                  1.0786         -DE/DX =    0.0                 !
 ! R8    R(4,7)                  1.3726         -DE/DX =    0.0                 !
 ! R9    R(4,10)                 2.1381         -DE/DX =    0.0                 !
 ! R10   R(7,9)                  1.0785         -DE/DX =    0.0                 !
 ! R11   R(10,11)                1.8987         -DE/DX =    0.0                 !
 ! R12   R(10,12)                1.6304         -DE/DX =    0.0                 !
 ! R13   R(10,13)                1.8498         -DE/DX =    0.0                 !
 ! R14   R(10,14)                1.6338         -DE/DX =    0.0                 !
 ! R15   R(11,13)                1.4643         -DE/DX =    0.0                 !
 ! A1    A(2,1,3)              107.7953         -DE/DX =    0.0                 !
 ! A2    A(2,1,6)              125.7621         -DE/DX =    0.0                 !
 ! A3    A(3,1,6)              126.4399         -DE/DX =    0.0                 !
 ! A4    A(1,2,4)              109.9644         -DE/DX =    0.0                 !
 ! A5    A(1,2,5)              126.7            -DE/DX =    0.0                 !
 ! A6    A(4,2,5)              123.3206         -DE/DX =    0.0                 !
 ! A7    A(1,3,7)              105.4387         -DE/DX =    0.0                 !
 ! A8    A(1,3,8)              122.1034         -DE/DX =    0.0                 !
 ! A9    A(7,3,8)              132.4568         -DE/DX =    0.0                 !
 ! A10   A(2,4,7)              107.6139         -DE/DX =    0.0                 !
 ! A11   A(2,4,10)             122.7839         -DE/DX =    0.0                 !
 ! A12   A(7,4,10)             129.5525         -DE/DX =    0.0                 !
 ! A13   A(3,7,4)              109.1877         -DE/DX =    0.0                 !
 ! A14   A(3,7,9)              131.1524         -DE/DX =    0.0                 !
 ! A15   A(4,7,9)              119.6548         -DE/DX =    0.0                 !
 ! A16   A(4,10,11)             81.7356         -DE/DX =    0.0                 !
 ! A17   A(4,10,12)             94.9231         -DE/DX =    0.0                 !
 ! A18   A(4,10,13)            127.6553         -DE/DX =    0.0                 !
 ! A19   A(4,10,14)             94.1302         -DE/DX =    0.0                 !
 ! A20   A(11,10,12)           123.1918         -DE/DX =    0.0                 !
 ! A21   A(11,10,14)           123.569          -DE/DX =    0.0                 !
 ! A22   A(12,10,13)           110.5056         -DE/DX =    0.0                 !
 ! A23   A(12,10,14)           113.2392         -DE/DX =    0.0                 !
 ! A24   A(13,10,14)           114.5013         -DE/DX =    0.0                 !
 ! D1    D(3,1,2,4)             -0.0697         -DE/DX =    0.0                 !
 ! D2    D(3,1,2,5)            178.5498         -DE/DX =    0.0                 !
 ! D3    D(6,1,2,4)           -179.4949         -DE/DX =    0.0                 !
 ! D4    D(6,1,2,5)             -0.8754         -DE/DX =    0.0                 !
 ! D5    D(2,1,3,7)              0.0271         -DE/DX =    0.0                 !
 ! D6    D(2,1,3,8)           -179.6354         -DE/DX =    0.0                 !
 ! D7    D(6,1,3,7)            179.4473         -DE/DX =    0.0                 !
 ! D8    D(6,1,3,8)             -0.2152         -DE/DX =    0.0                 !
 ! D9    D(1,2,4,7)              0.083          -DE/DX =    0.0                 !
 ! D10   D(1,2,4,10)          -177.5751         -DE/DX =    0.0                 !
 ! D11   D(5,2,4,7)           -178.5924         -DE/DX =    0.0                 !
 ! D12   D(5,2,4,10)             3.7495         -DE/DX =    0.0                 !
 ! D13   D(1,3,7,4)              0.0224         -DE/DX =    0.0                 !
 ! D14   D(1,3,7,9)           -179.1262         -DE/DX =    0.0                 !
 ! D15   D(8,3,7,4)            179.635          -DE/DX =    0.0                 !
 ! D16   D(8,3,7,9)              0.4863         -DE/DX =    0.0                 !
 ! D17   D(2,4,7,3)             -0.0654         -DE/DX =    0.0                 !
 ! D18   D(2,4,7,9)            179.197          -DE/DX =    0.0                 !
 ! D19   D(10,4,7,3)           177.381          -DE/DX =    0.0                 !
 ! D20   D(10,4,7,9)            -3.3566         -DE/DX =    0.0                 !
 ! D21   D(2,4,10,11)          -32.3955         -DE/DX =    0.0                 !
 ! D22   D(2,4,10,12)           90.4738         -DE/DX =    0.0                 !
 ! D23   D(2,4,10,13)          -30.2278         -DE/DX =    0.0                 !
 ! D24   D(2,4,10,14)         -155.7426         -DE/DX =    0.0                 !
 ! D25   D(7,4,10,11)          150.4997         -DE/DX =    0.0                 !
 ! D26   D(7,4,10,12)          -86.6309         -DE/DX =    0.0                 !
 ! D27   D(7,4,10,13)          152.6674         -DE/DX =    0.0                 !
 ! D28   D(7,4,10,14)           27.1527         -DE/DX =    0.0                 !
 --------------------------------------------------------------------------------
 GradGradGradGradGradGradGradGradGradGradGradGradGradGradGradGradGradGrad

 Leave Link  103 at Wed Apr 17 13:11:47 2019, MaxMem=  2147483648 cpu:         0.3
 (Enter /software/sse/easybuild/prefix/software/Gaussian/09.E.01-avx-nsc1-bdist/g09/l9999.exe)

 Test job not archived.
 1\1\NSC-N319\Freq\RB3LYP\6-31G(d,p)\C3H4N2O4V1(1-)\X_MASKA\17-Apr-2019
 \0\\#p freq=intmodes b3lyp/6-31G(d,p) empiricaldispersion=gd3 pseudo=r
 ead Iop(7/32=5)\\Title Card Required\\-1,1\N,2.905183,-0.829186,0.1386
 84\C,1.561731,-1.034276,0.21305\C,3.113841,0.509202,-0.163125\N,0.9225
 77,0.089781,-0.021427\H,1.061686,-1.971315,0.409486\H,3.615513,-1.5301
 31,0.27078\C,1.863316,1.060908,-0.25824\H,4.102932,0.922518,-0.28211\H
 ,1.546605,2.066112,-0.487227\V,-1.207623,0.25048,0.067058\O,-1.094384,
 -1.544359,-0.541891\O,-1.251875,0.656362,1.645517\O,-2.456253,-1.06424
 8,-0.299185\O,-1.269868,1.541321,-0.932463\\Version=ES64L-G09RevE.01\S
 tate=1-A\HF=-1471.195465\RMSD=3.458e-09\RMSF=1.599e-05\ZeroPoint=0.085
 5803\Thermal=0.0955228\Dipole=5.0635089,-0.8018857,0.0370944\DipoleDer
 iv=-0.5506678,0.1879048,-0.0367024,0.3002989,-0.2579599,-0.0075695,-0.
 0677157,0.0009856,-0.2555011,0.5249646,-0.2278319,0.0376978,-0.2422924
 ,0.104078,-0.0151469,0.0504217,0.002018,0.0463693,-0.0707209,0.0129558
 ,-0.0047982,-0.2276413,0.1856148,-0.0658022,0.0499578,-0.0753214,-0.13
 03975,-0.5592647,0.0852876,-0.0053679,0.0526307,-0.2537864,0.0530544,-
 0.0327413,0.0640681,-0.1031179,0.2091432,-0.0320527,0.0112006,0.035122
 2,0.0775978,0.0177885,0.0182729,-0.0018211,0.1387092,0.1692946,-0.0005
 244,0.0031482,-0.0093539,0.1827075,0.0279076,0.0085552,0.024395,0.3060
 552,0.1272249,0.0188733,-0.0002789,0.144484,0.1306955,-0.0416927,-0.02
 51043,-0.0504033,-0.0417691,-0.0669211,-0.0489146,0.0163932,-0.0225698
 ,0.0630602,0.0221455,0.0101205,0.0230669,0.1533515,0.1418816,0.0341075
 ,-0.0118504,-0.0127036,0.0397078,0.0201659,0.0121084,0.029372,0.126972
 ,1.6003254,0.1887721,0.0509428,0.110157,1.633899,-0.0775776,0.040165,-
 0.0795677,1.875882,-0.3461539,0.3425446,0.1212729,-0.0617965,-0.848296
 5,-0.2135675,-0.0349036,-0.200696,-0.3908548,-0.6744311,0.0238644,0.03
 69061,0.0386611,-0.4598875,-0.2789375,0.0520821,-0.2862607,-1.5444862,
 -0.7967828,-0.636023,-0.195522,-0.1542669,-0.4634816,-0.0381848,-0.061
 2499,-0.0196168,-0.2880859,-0.707892,0.0510364,-0.0230417,0.0492705,-1
 .1339486,0.5974169,-0.0199687,0.5697814,-0.8931266\Polar=100.6521376,1
 .8530343,86.0781762,-0.3766204,-3.8363467,59.5844879\PG=C01 [X(C3H4N2O
 4V1)]\NImag=0\\0.81378811,-0.18025822,0.75089083,0.02135665,-0.1426711
 0,0.10448452,-0.32062539,-0.04864752,0.01709517,0.67424832,-0.04741592
 ,-0.11968678,0.01460194,0.07779377,0.88372841,0.01523524,0.01334870,-0
 .05950418,-0.02530220,-0.16045216,0.16818968,-0.11446059,-0.02977753,0
 .00869836,-0.05214824,-0.01960304,0.00549506,0.88975529,-0.02834641,-0
 .27465642,0.05038362,-0.06494656,-0.04643971,0.01688911,0.06231696,0.5
 6370861,0.00836085,0.05154239,-0.05772044,0.01569233,0.01449719,0.0126
 0635,-0.03293534,-0.10578398,0.12313798,-0.07729245,0.02075983,-0.0022
 5773,-0.18621435,0.12522275,-0.02523697,-0.07304826,0.00460844,0.00071
 749,0.60171840,0.07762672,-0.03249994,0.00970180,0.13812204,-0.3392240
 8,0.05357655,-0.06451481,0.01618812,0.00059233,-0.06462923,0.61111310,
 -0.01581221,0.01064411,0.01678769,-0.02805533,0.05400736,-0.08790777,0
 .01589771,-0.00030397,0.01351089,0.00097088,-0.10230886,0.14427942,-0.
 00806360,-0.02548307,0.00550579,-0.11751807,-0.12356796,0.02737868,-0.
 00462362,0.00382167,-0.00077802,0.01293150,0.01522900,-0.00316499,0.11
 612708,0.00323122,0.00760669,-0.00233748,-0.12109709,-0.28678674,0.055
 45423,0.00204521,0.00086409,0.00017610,-0.01099766,-0.01980419,0.00403
 869,0.12622015,0.30184151,-0.00039931,-0.00068228,-0.00219596,0.026134
 00,0.05312389,-0.03891250,-0.00003765,0.00001493,0.00239982,0.00228875
 ,0.00453521,-0.00157388,-0.02790450,-0.05918565,0.03632765,-0.26918905
 ,0.19384148,-0.03471867,-0.00477264,0.02766360,-0.00601177,0.01172575,
 -0.00596787,0.00070938,-0.00902072,-0.00082594,0.00063120,-0.00018017,
 -0.00088569,0.00009008,0.27032513,0.19429453,-0.26208311,0.05117732,-0
 .00339785,0.01016735,-0.00388237,0.02427716,-0.00548638,-0.00134036,-0
 .00461011,0.00220653,0.00076493,0.00010289,-0.00028631,-0.00028363,-0.
 20943026,0.26175902,-0.03462613,0.05082183,-0.01137345,0.00066551,-0.0
 0467778,-0.00744924,-0.00591651,-0.00032205,-0.00804935,0.00122919,0.0
 0079485,0.00567283,-0.00000862,-0.00018484,-0.00153572,0.03822895,-0.0
 4882741,0.01934411,-0.02662946,0.06633427,-0.01462030,0.02369944,-0.04
 710997,0.01138987,-0.34444909,0.11514776,-0.01845443,-0.20042821,-0.08
 192404,0.02190373,-0.00054142,0.00341733,-0.00085141,-0.00059490,-0.00
 167772,0.00050852,0.64666771,0.01176912,-0.06220843,0.01612533,0.01285
 759,-0.09380409,0.02273819,0.12582212,-0.15541217,0.01871990,-0.083964
 33,-0.19131935,0.02918619,0.00406211,-0.00205093,0.00180026,-0.0051139
 1,-0.00699621,0.00225673,-0.13944819,0.81763534,-0.00194362,0.01523987
 ,0.00900147,-0.00249412,0.02449208,0.00651697,-0.02164891,0.01910644,-
 0.06400390,0.02246059,0.02942488,-0.07611722,-0.00089454,0.00155216,0.
 00520995,0.00124936,0.00211480,0.00168232,0.01894682,-0.15376085,0.164
 22629,0.00450358,0.00358385,-0.00104932,-0.00046162,0.00236917,-0.0004
 4661,-0.31784136,-0.10703581,0.03183644,-0.00534218,0.00094785,0.00019
 072,0.00030282,0.00000085,0.00005184,-0.00026759,-0.00075232,0.0001427
 8,-0.00661917,-0.01504728,0.00357032,0.32521640,-0.03207547,-0.0083351
 5,0.00142377,0.00286651,-0.00686060,0.00189766,-0.09769773,-0.09735939
 ,0.02089443,0.00507801,0.00071599,0.00125725,-0.00100537,0.00068158,0.
 00043008,0.00026665,0.00030285,-0.00029692,0.00768262,0.01257354,-0.00
 381429,0.11593278,0.09826133,0.00681864,0.00046101,-0.00587379,-0.0006
 0292,0.00191205,0.00180914,0.02983250,0.02111853,-0.02255628,-0.000960
 77,0.00134390,0.00679258,0.00025199,0.00027673,0.00207724,-0.00007772,
 -0.00027568,-0.00097042,-0.00156325,-0.00304255,-0.00188718,-0.0341256
 9,-0.02143170,0.02248267,-0.00536112,0.00153292,-0.00004812,-0.0036521
 8,-0.00440367,0.00103955,0.00324583,0.02077077,-0.00499221,0.01000316,
 -0.02437254,0.00507102,0.00100343,-0.00091190,0.00023820,0.00075529,0.
 00102597,-0.00022669,-0.08458755,0.09493339,-0.02009993,-0.00006095,-0
 .00047627,0.00009510,0.07670959,-0.00003182,0.00159256,0.00084525,-0.0
 0338970,-0.00127723,0.00142275,-0.00179612,-0.00009924,-0.00018785,0.0
 0478259,-0.01840669,0.00344714,0.00066880,-0.00042438,0.00035372,0.000
 03852,0.00041620,0.00042291,0.08611806,-0.31951047,0.06600063,0.000390
 85,-0.00034409,-0.00045643,-0.08839987,0.33804783,0.00034642,0.0007005
 2,0.00483086,0.00092144,0.00141592,0.00423232,0.00042187,-0.00092924,-
 0.00057366,-0.00160034,0.00413402,-0.00373030,-0.00020512,0.00032063,0
 .00097617,0.00003579,0.00033431,0.00207533,-0.01838455,0.06625314,-0.0
 4478239,-0.00015250,-0.00037140,-0.00212191,0.01841424,-0.07166191,0.0
 4015089,0.00708173,-0.00256326,-0.00008978,-0.01296299,0.01354926,-0.0
 0234116,0.00307471,0.00029094,-0.00023583,-0.05795297,0.01080819,0.004
 98601,0.00175601,0.00014282,0.00096864,0.00102202,0.00042505,-0.000233
 22,-0.00813018,-0.00799520,0.00255301,0.00124224,-0.00054804,0.0001512
 9,-0.00023688,0.00084016,-0.00010339,0.27004600,0.00313265,-0.00496111
 ,0.00055278,0.01097951,0.00334822,-0.00138628,-0.00390542,-0.00219149,
 0.00159859,0.00588573,-0.02662263,0.00141678,0.00518835,-0.00151149,0.
 00066167,0.00075884,0.00007825,0.00008367,-0.00858782,0.00383378,-0.00
 096870,-0.00051232,0.00013656,0.00016856,-0.00298422,-0.00092568,-0.00
 017108,0.01850062,0.66480105,-0.00023929,0.00198894,0.00097164,-0.0031
 6526,-0.00058587,-0.00071514,0.00096519,0.00009770,0.00085443,0.000419
 70,0.00028578,-0.02085346,0.00045610,0.00073416,0.00034587,-0.00029798
 ,0.00047926,0.00151619,0.00214802,-0.00145842,-0.00062197,0.00000010,0
 .00019027,0.00070841,0.00189305,0.00043991,0.00034232,0.00986678,-0.02
 271888,0.70343694,0.00147863,-0.00188635,0.00064380,-0.00289434,0.0009
 9294,-0.00236540,-0.00122245,-0.00093638,0.00053647,-0.00857901,-0.014
 86621,-0.00465763,-0.00039870,-0.00074171,-0.00013431,0.00034077,0.000
 07876,0.00012507,-0.00154380,0.00069886,-0.00098572,-0.00025045,-0.000
 01982,0.00035608,-0.00041295,-0.00015649,-0.00001814,-0.02572645,0.015
 84348,0.00446368,0.23363914,-0.00188664,0.00175013,0.00071543,0.000715
 68,-0.00301237,-0.00105160,0.00026330,0.00040476,-0.00013048,-0.004968
 25,-0.00049042,-0.00058214,-0.00190530,-0.00038960,0.00008879,-0.00030
 907,-0.00020403,-0.00014249,0.00051125,0.00106855,0.00024802,-0.000121
 37,0.00011706,-0.00019235,0.00052975,0.00013771,-0.00004225,0.02276278
 ,-0.14099914,-0.03527590,-0.07807896,0.16596044,0.00012434,0.00053085,
 0.00045865,-0.00036355,-0.00044547,0.00063850,-0.00034768,-0.00041506,
 0.00000092,-0.00189835,-0.00047003,0.00070890,-0.00127355,-0.00006135,
 -0.00258248,-0.00006192,-0.00004080,-0.00010076,0.00015925,0.00033022,
 0.00041015,-0.00000024,-0.00000667,-0.00023841,0.00009801,-0.00001530,
 -0.00006349,0.00794905,-0.03636358,-0.04574727,-0.03764186,0.05532004,
 0.03939262,-0.00182493,0.00004638,-0.00033765,0.00262376,-0.00208946,0
 .00103660,-0.00045049,0.00025411,-0.00035514,-0.00356379,0.00248248,0.
 00981482,-0.00046373,-0.00019882,-0.00007323,0.00002000,-0.00024413,-0
 .00032604,0.00154821,0.00126429,-0.00002476,-0.00011955,-0.00000706,-0
 .00016580,-0.00001054,-0.00002910,-0.00017123,-0.03489610,0.00722096,0
 .01614949,0.00402862,-0.00540682,0.00086645,0.02431514,-0.00016329,0.0
 0037060,-0.00019519,-0.00090403,0.00036077,0.00024906,0.00082886,0.000
 20111,0.00018646,0.00266698,0.00049528,-0.00185867,-0.00050373,0.00016
 621,0.00010332,0.00001894,-0.00003032,-0.00004698,0.00008801,-0.000801
 93,-0.00008934,0.00009833,-0.00001117,0.00002796,0.00000151,0.00003991
 ,-0.00036927,0.00571458,-0.09793530,-0.09525836,-0.00136274,0.00448076
 ,-0.00394289,-0.00219783,0.06395011,0.00140589,-0.00065181,0.00024986,
 -0.00076390,0.00209894,0.00031815,0.00079573,0.00042535,-0.00008259,0.
 00908427,-0.00045472,-0.00063105,-0.00135867,-0.00039564,-0.00088928,0
 .00022587,-0.00006535,-0.00043817,-0.00014357,-0.00120263,0.00083599,0
 .00031503,-0.00012459,-0.00015670,-0.00071298,-0.00003960,-0.00042734,
 0.01376617,-0.10664256,-0.41269055,0.00746096,-0.02100221,0.00264409,-
 0.01468866,0.10144342,0.43223259,-0.00158217,0.00038285,-0.00013090,0.
 00116180,-0.00162420,0.00029900,-0.00068390,-0.00022394,0.00012869,0.0
 0040543,-0.00229114,-0.00074874,0.00022006,-0.00031306,-0.00013673,0.0
 0002161,-0.00017729,0.00007860,0.00013287,0.00065795,-0.00043668,-0.00
 021034,0.00003037,0.00000049,0.00042830,0.00012992,0.00002427,-0.10665
 034,-0.07020910,-0.02106101,-0.20254945,0.07181869,0.03670330,0.005383
 75,-0.00177618,-0.01561294,0.29737797,-0.00088870,0.00084034,-0.000271
 34,0.00062414,-0.00204976,0.00173985,-0.00014738,0.00005505,-0.0001920
 6,-0.00558717,-0.00099279,-0.00127303,-0.00158435,-0.00006045,-0.00079
 784,-0.00016637,-0.00005165,0.00007595,0.00011813,0.00083006,-0.000313
 97,-0.00011736,0.00014375,0.00004531,0.00034661,0.00007976,-0.00005091
 ,-0.08139143,-0.08693946,-0.01690289,0.07660942,-0.02070751,-0.0099739
 5,0.00108254,-0.00406884,-0.00964596,0.01433969,0.12212487,-0.00011185
 ,-0.00043540,0.00003758,-0.00051457,0.00033493,-0.00025532,0.00004671,
 -0.00009598,-0.00010754,-0.00138493,-0.00064660,0.00126868,0.00101586,
 -0.00026755,0.00027484,0.00004997,-0.00000840,-0.00009097,-0.00068357,
 -0.00001245,0.00007821,-0.00011059,-0.00007163,0.00000792,0.00006244,0
 .00000720,0.00007849,-0.02422494,-0.01637536,-0.03364531,0.03843564,-0
 .00958771,-0.01058801,-0.00974900,-0.00763761,0.00183649,-0.01143246,0
 .03522919,0.03492811,-0.00182329,0.00213439,-0.00004729,-0.00048348,-0
 .00177726,-0.00016988,0.00112641,0.00024632,-0.00023068,-0.00361656,0.
 00820763,-0.00702718,-0.00055159,0.00008836,-0.00023438,-0.00018549,0.
 00008531,0.00035858,0.00147556,-0.00049650,-0.00025181,-0.00009182,-0.
 00002720,-0.00000994,0.00217656,0.00083420,0.00047126,-0.03766680,0.01
 868874,-0.01159856,0.00409044,-0.00392504,-0.00431327,0.00340964,-0.00
 250941,0.00022681,0.00654440,-0.00323778,0.00860130,0.02559600,0.00101
 224,0.00137979,-0.00005213,-0.00157648,0.00153659,-0.00054370,0.001888
 42,0.00022305,-0.00057265,0.00575242,-0.00135893,0.00156423,-0.0012431
 9,0.00015403,-0.00016246,0.00011109,0.00020782,0.00004253,-0.00066967,
 -0.00383768,0.00076827,0.00026278,-0.00002227,0.00004466,0.00240753,0.
 00067382,0.00043752,0.01946352,-0.31011156,0.16798429,0.00382522,-0.00
 811634,-0.00444600,-0.00217755,0.03278282,0.03625736,-0.01074458,-0.00
 920336,-0.00043263,-0.01831175,0.29569222,-0.00051562,-0.00083762,-0.0
 0015446,0.00075340,-0.00032303,0.00043304,-0.00126704,-0.00018541,0.00
 058338,-0.00383177,-0.00050911,0.00179269,0.00097962,-0.00012017,0.000
 07827,-0.00005253,-0.00014662,-0.00028269,-0.00035511,0.00206694,-0.00
 054869,-0.00022228,0.00002374,-0.00007327,-0.00083168,-0.00057841,-0.0
 0098728,-0.01301265,0.18014439,-0.19390211,-0.00621864,0.01163484,0.01
 506658,-0.00197585,0.00738808,-0.02280148,0.01232512,0.00233166,0.0061
 7683,0.01422504,-0.20088929,0.19461921\\-0.00000245,0.00000924,-0.0000
 1182,0.00000584,-0.00001107,0.00000374,0.00000158,-0.00000371,0.000006
 20,-0.00005240,0.00002719,0.00000314,-0.00000417,0.00000154,-0.0000009
 3,-0.00000320,-0.00000044,0.00000051,0.00002158,-0.00001079,-0.0000069
 3,0.00000405,-0.00000018,-0.00000237,0.00000389,-0.00000412,0.00000574
 ,0.00000317,-0.00001230,-0.00004560,0.00000158,0.00002282,0.00002704,-
 0.00000092,-0.00001740,-0.00002461,0.00000038,-0.00000260,0.00001476,0
 .00002105,0.00000185,0.00003114\\\@


 We make a living by what we get,
 we make a life by what we give.
                   -- Sir Winston Churchill
 Job cpu time:       0 days  0 hours 10 minutes  7.6 seconds.
 File lengths (MBytes):  RWF=     72 Int=      0 D2E=      0 Chk=      4 Scr=      1
 Normal termination of Gaussian 09 at Wed Apr 17 13:11:47 2019.

=== POST-JOB OUTPUT FROM THE NSC g09 WRAPPER ===
Gaussian calculation successful!
==============================================

