 Entering Gaussian System, Link 0=g09
 Input=ts4_PHA_a.gjf
 Output=ts4_PHA_a.log
 Initial command:
 /usr/local/g09/l1.exe "/scratch/57251/Gau-18012.inp" -scrdir="/scratch/57251/"
 Entering Link 1 = /usr/local/g09/l1.exe PID=     18013.
  
 Copyright (c) 1988,1990,1992,1993,1995,1998,2003,2009,2013,
            Gaussian, Inc.  All Rights Reserved.
  
 This is part of the Gaussian(R) 09 program.  It is based on
 the Gaussian(R) 03 system (copyright 2003, Gaussian, Inc.),
 the Gaussian(R) 98 system (copyright 1998, Gaussian, Inc.),
 the Gaussian(R) 94 system (copyright 1995, Gaussian, Inc.),
 the Gaussian 92(TM) system (copyright 1992, Gaussian, Inc.),
 the Gaussian 90(TM) system (copyright 1990, Gaussian, Inc.),
 the Gaussian 88(TM) system (copyright 1988, Gaussian, Inc.),
 the Gaussian 86(TM) system (copyright 1986, Carnegie Mellon
 University), and the Gaussian 82(TM) system (copyright 1983,
 Carnegie Mellon University). Gaussian is a federally registered
 trademark of Gaussian, Inc.
  
 This software contains proprietary and confidential information,
 including trade secrets, belonging to Gaussian, Inc.
  
 This software is provided under written license and may be
 used, copied, transmitted, or stored only in accord with that
 written license.
  
 The following legend is applicable only to US Government
 contracts under FAR:
  
                    RESTRICTED RIGHTS LEGEND
  
 Use, reproduction and disclosure by the US Government is
 subject to restrictions as set forth in subparagraphs (a)
 and (c) of the Commercial Computer Software - Restricted
 Rights clause in FAR 52.227-19.
  
 Gaussian, Inc.
 340 Quinnipiac St., Bldg. 40, Wallingford CT 06492
  
  
 ---------------------------------------------------------------
 Warning -- This program may not be used in any manner that
 competes with the business of Gaussian, Inc. or will provide
 assistance to any competitor of Gaussian, Inc.  The licensee
 of this program is prohibited from giving any competitor of
 Gaussian, Inc. access to this program.  By using this program,
 the user acknowledges that Gaussian, Inc. is engaged in the
 business of creating and licensing software in the field of
 computational chemistry and represents and warrants to the
 licensee that it is not a competitor of Gaussian, Inc. and that
 it will not use this program in any manner prohibited above.
 ---------------------------------------------------------------
  

 Cite this work as:
 Gaussian 09, Revision D.01,
 M. J. Frisch, G. W. Trucks, H. B. Schlegel, G. E. Scuseria, 
 M. A. Robb, J. R. Cheeseman, G. Scalmani, V. Barone, B. Mennucci, 
 G. A. Petersson, H. Nakatsuji, M. Caricato, X. Li, H. P. Hratchian, 
 A. F. Izmaylov, J. Bloino, G. Zheng, J. L. Sonnenberg, M. Hada, 
 M. Ehara, K. Toyota, R. Fukuda, J. Hasegawa, M. Ishida, T. Nakajima, 
 Y. Honda, O. Kitao, H. Nakai, T. Vreven, J. A. Montgomery, Jr., 
 J. E. Peralta, F. Ogliaro, M. Bearpark, J. J. Heyd, E. Brothers, 
 K. N. Kudin, V. N. Staroverov, T. Keith, R. Kobayashi, J. Normand, 
 K. Raghavachari, A. Rendell, J. C. Burant, S. S. Iyengar, J. Tomasi, 
 M. Cossi, N. Rega, J. M. Millam, M. Klene, J. E. Knox, J. B. Cross, 
 V. Bakken, C. Adamo, J. Jaramillo, R. Gomperts, R. E. Stratmann, 
 O. Yazyev, A. J. Austin, R. Cammi, C. Pomelli, J. W. Ochterski, 
 R. L. Martin, K. Morokuma, V. G. Zakrzewski, G. A. Voth, 
 P. Salvador, J. J. Dannenberg, S. Dapprich, A. D. Daniels, 
 O. Farkas, J. B. Foresman, J. V. Ortiz, J. Cioslowski, 
 and D. J. Fox, Gaussian, Inc., Wallingford CT, 2013.
 
 ******************************************
 Gaussian 09:  ES64L-G09RevD.01 24-Apr-2013
                27-Jun-2017 
 ******************************************
 %nprocshared=16
 Will use up to   16 processors via shared memory.
 %mem=16GB
 ----------------------------------------------------------------------
 #p opt=(calcfc,ts,modredundant,noeigentest) b3lyp/6-31g(d,p) empirical
 dispersion=gd3
 ----------------------------------------------------------------------
 1/5=1,10=4,11=1,14=-1,18=120,26=3,38=1/1,3;
 2/9=110,12=2,17=6,18=5,40=1/2;
 3/5=1,6=6,7=101,11=2,16=1,25=1,30=1,71=2,74=-5,124=31,140=1/1,2,3;
 4//1;
 5/5=2,38=5/2;
 8/6=4,10=90,11=11/1;
 11/6=1,8=1,9=11,15=111,16=1/1,2,10;
 10/6=1,13=1/2;
 6/7=2,8=2,9=2,10=2,28=1/1;
 7/10=1,18=20,25=1/1,2,3,16;
 1/5=1,10=4,11=1,14=-1,18=20,26=3/3(2);
 2/9=110/2;
 99//99;
 2/9=110/2;
 3/5=1,6=6,7=101,11=2,16=1,25=1,30=1,71=1,74=-5,124=31/1,2,3;
 4/5=5,16=3,69=1/1;
 5/5=2,38=5/2;
 7//1,2,3,16;
 1/5=1,11=1,14=-1,18=20,26=3/3(-5);
 2/9=110/2;
 6/7=2,8=2,9=2,10=2,19=2,28=1/1;
 99/9=1/99;
 Leave Link    1 at Tue Jun 27 13:54:17 2017, MaxMem=  2147483648 cpu:         0.9
 (Enter /usr/local/g09/l101.exe)
 -------------------
 Title Card Required
 -------------------
 Symbolic Z-matrix:
 Charge = -1 Multiplicity = 1
 C                     5.29996   0.25305   0.61026 
 C                     3.81691   0.63566   0.59242 
 N                     5.63741  -0.66878  -0.46529 
 H                     3.52322   0.91889  -0.42208 
 O                     3.01441  -0.45821   1.02023 
 H                     3.64894   1.48527   1.25945 
 C                     5.64047  -0.29284   2.01132 
 H                     5.88928   1.16315   0.4625 
 C                     6.85954  -0.62453  -1.08984 
 H                     5.15277  -1.563    -0.48406 
 N                     6.22265  -1.51348   2.06119 
 O                     5.36735   0.36863   3.01427 
 C                     7.20958  -1.819    -1.98289 
 O                     7.64052   0.31363  -0.95772 
 C                     6.46951  -2.19887   3.32064 
 H                     6.31845  -2.04306   1.20488 
 C                     6.05281  -2.48077  -2.74919 
 H                     7.96798  -1.44224  -2.67358 
 H                     7.69081  -2.56905  -1.34405 
 C                     6.15506  -3.69729   3.20972 
 H                     5.84653  -1.71539   4.07669 
 H                     7.51494  -2.0592    3.62964 
 C                     5.26922  -3.5357   -1.94867 
 H                     6.42734  -2.97858  -3.64905 
 H                     5.33935  -1.72184  -3.09938 
 C                     4.73171  -4.05305   2.73083 
 H                     6.32852  -4.14881   4.19714 
 H                     6.88095  -4.16442   2.52827 
 O                     4.55872  -4.34578  -2.62435 
 O                     5.37097  -3.51976  -0.68926 
 C                     3.64694  -3.39206   3.59094 
 C                     4.55984  -5.57852   2.69068 
 H                     4.62513  -3.68322   1.70452 
 H                     2.64717  -3.76581   3.3537 
 H                     3.80765  -3.59747   4.65738 
 H                     3.63169  -2.30841   3.45056 
 H                     5.37269  -6.05851   2.13191 
 H                     4.56389  -5.99746   3.70541 
 H                     3.62104  -5.86936   2.20951 
 C                     1.90657  -1.22857  -0.28344 
 C                     2.12572  -2.66092   0.14742 
 O                     0.69715  -0.71557   0.26179 
 O                     2.27468  -0.78703  -1.39116 
 H                     3.12782  -3.00477  -0.11009 
 H                     1.39602  -3.28702  -0.37967 
 H                     1.9587   -2.76475   1.21881 
 C                    -0.41783  -0.85581  -0.60292 
 C                    -0.79877   0.42118  -1.31899 
 H                    -0.23299  -1.62447  -1.3639 
 H                    -1.25655  -1.18602   0.0247 
 C                    -1.87178   0.39791  -2.22277 
 C                    -0.12386   1.62262  -1.09908 
 C                    -2.24891   1.55175  -2.91435 
 H                    -2.42666  -0.52793  -2.35958 
 C                    -0.49776   2.77838  -1.79128 
 H                     0.69955   1.64328  -0.39442 
 C                    -1.55081   2.74745  -2.70537 
 H                    -3.11145   1.53197  -3.57885 
 H                     0.04087   3.69953  -1.59835 
 H                    -1.8407    3.64873  -3.23758 
 N                     1.55305   0.28706   2.89074 
 C                     0.2719    0.51919   3.14158 
 C                     2.16336   0.07748   4.10133 
 N                     0.03519   0.47448   4.47264 
 H                    -0.48545   0.70034   2.3969 
 C                     1.2347    0.2026    5.10009 
 H                     3.2182   -0.1439    4.1593 
 H                    -0.88053   0.61364   4.9532 
 C                     1.36511  -0.11802   6.54536 
 C                     1.21273  -1.63646   6.73753 
 H                     2.34987   0.19853   6.90679 
 H                     0.60966   0.41051   7.13891 
 N                    -0.13024  -2.0645    6.41704 
 H                     1.9003   -2.1777    6.08477 
 H                     1.4552   -1.89984   7.77885 
 C                    -0.37667  -3.0391    5.50349 
 H                    -0.92535  -1.52231   6.77203 
 C                    -1.85571  -3.2924    5.26869 
 O                     0.50582  -3.67382   4.91974 
 C                    -2.36802  -2.79744   3.89553 
 H                    -2.44868  -2.82183   6.05819 
 H                    -2.007    -4.37777   5.32348 
 C                    -1.74144  -3.58006   2.73244 
 C                    -3.91051  -2.86791   3.91501 
 H                    -2.08414  -1.73985   3.78974 
 H                    -2.01808  -3.1504    1.764 
 H                    -2.07907  -4.62461   2.74008 
 H                    -0.6533   -3.58589   2.8174 
 C                    -4.58107  -2.66987   2.55609 
 H                    -4.27608  -2.11946   4.63004 
 H                    -4.21105  -3.84677   4.31724 
 H                    -4.21992  -1.76666   2.0566 
 H                    -5.66907  -2.57604   2.65884 
 H                    -4.38419  -3.51505   1.89394 
 O                     2.51577  -7.22624   0.31623 
 C                     1.65886  -6.52005  -0.56349 
 H                     3.43363  -7.03057   0.01319 
 C                     1.24129  -7.41638  -1.71754 
 C                     0.45514  -6.02395   0.23928 
 H                     2.18865  -5.64313  -0.97389 
 H                     0.82586  -8.3492   -1.31942 
 H                     0.47705  -6.95069  -2.35064 
 H                     2.1025   -7.67368  -2.3437 
 H                    -0.09578  -6.87346   0.65874 
 H                    -0.23366  -5.44118  -0.38467 
 H                     0.7846   -5.39466   1.06983 
 N                     2.41099  -2.75738  -3.20226 
 C                     1.31501  -2.77287  -3.92652 
 H                     2.46604  -2.04244  -2.45181 
 H                     3.17316  -3.45186  -3.26248 
 C                     1.19001  -3.8096   -5.01787 
 O                     0.33906  -1.9957   -3.70281 
 C                     0.31262  -4.94653  -4.48892 
 H                     2.17173  -4.18768  -5.31719 
 H                     0.7333   -3.33279  -5.894 
 H                    -0.63162  -4.55555  -4.10014 
 H                     0.09234  -5.68484  -5.26635 
 H                     0.82182  -5.46009  -3.6722 
 N                    -1.39509  -0.97425  -5.25478 
 C                    -2.30801  -2.07338  -5.73112 
 H                    -0.95184  -0.45909  -6.02207 
 H                    -0.6542   -1.39029  -4.68152 
 H                    -1.85923  -0.28456  -4.65523 
 C                    -3.07804  -2.65551  -4.54599 
 H                    -2.96362  -1.67482  -6.5092 
 H                    -1.65369  -2.82517  -6.18159 
 C                    -3.54809  -4.10461  -4.71928 
 H                    -3.92715  -2.0079   -4.30369 
 H                    -2.41504  -2.64052  -3.67339 
 C                    -4.60858  -4.45215  -5.78536 
 H                    -3.94153  -4.40657  -3.74363 
 H                    -2.66855  -4.73969  -4.88697 
 C                    -5.08816  -5.87885  -5.50535 
 H                    -4.19781  -4.36864  -6.79995 
 H                    -5.45134  -3.75019  -5.7213 
 H                    -5.83205  -6.21568  -6.23514 
 H                    -4.25087  -6.58488  -5.53384 
 H                    -5.53873  -5.94319  -4.50936 
 C                    -5.09528  -3.20328  -0.68247 
 C                    -3.76187  -2.81659  -0.83599 
 C                    -5.48066  -4.5442   -0.81219 
 H                    -5.8313   -2.45501  -0.40454 
 C                    -2.78322  -3.76822  -1.1276 
 H                    -3.49061  -1.77881  -0.66882 
 C                    -6.91814  -4.97088  -0.59668 
 C                    -4.48737  -5.48876  -1.1138 
 C                    -3.15245  -5.10905  -1.26787 
 H                    -1.74103  -3.47695  -1.21269 
 H                    -6.96937  -5.9416   -0.09408 
 H                    -7.46685  -5.06711  -1.54474 
 H                    -7.45605  -4.24373   0.0184 
 H                    -4.75929  -6.53804  -1.20156 
 H                    -2.39511  -5.86015  -1.47143 
 C                    -3.00124   0.39578   6.61911 
 C                    -4.35042   1.00115   7.06224 
 O                    -2.39717   1.02052   5.6681 
 O                    -2.58008  -0.6245    7.19469 
 H                    -4.17661   1.99895   7.47916 
 H                    -4.85012   0.37011   7.81186 
 H                    -5.00159   1.13205   6.19173 
 O                     5.22393   3.63462  -0.45856 
 C                     4.44462   3.2958   -1.58752 
 H                     5.52257   4.5544   -0.59682 
 C                     5.18953   2.29565  -2.49308 
 H                     4.1887    4.18746  -2.17096 
 H                     3.49677   2.859    -1.24755 
 C                     4.32123   1.9276   -3.6825 
 H                     5.47392   1.42082  -1.91084 
 H                     6.10078   2.76436  -2.87117 
 N                     3.55345   0.80871  -3.54833 
 O                     4.27784   2.62898  -4.70225 
 C                     2.60559   0.43234  -4.58675 
 H                     3.47697   0.33805  -2.65193 
 C                     1.2288    1.07351  -4.41121 
 H                     2.52651  -0.65393  -4.5951 
 H                     3.04452   0.753    -5.53545 
 H                     1.32138   2.15409  -4.28327 
 H                     0.61878   0.90661  -5.31192 
 H                     0.7156    0.65577  -3.54583 
 C                     0.51386   5.26568   0.60004 
 C                    -0.10548   4.94323   1.80573 
 C                     1.88904   5.01511   0.39484 
 H                    -0.0756    5.71316  -0.19724 
 C                     0.68567   4.3795    2.81333 
 H                    -1.16478   5.12726   1.96538 
 C                     2.67231   4.44316   1.39505 
 H                     2.35282   5.29284  -0.54802 
 N                     0.35146   3.97707   4.08387 
 C                     2.0797    4.12405   2.62929 
 H                     3.72069   4.23679   1.2038 
 C                     1.48237   3.45846   4.68814 
 H                    -0.60825   3.88936   4.43487 
 C                     2.57136   3.53134   3.85003 
 H                     1.41547   3.03551   5.68016 
 C                     3.93059   2.92688   4.0531 
 H                     4.47329   2.8821    3.10581 
 H                     4.62228   3.38844   4.77246 
 H                     3.83977   1.88871   4.36905 
 C                    -5.22153   0.68261   2.90742 
 C                    -3.88004   1.01422   2.70823 
 C                    -6.10165   0.51723   1.82805 
 H                    -5.58262   0.52282   3.92009 
 C                    -3.40097   1.21346   1.40832 
 H                    -3.2248    1.08417   3.57229 
 C                    -7.54039   0.12767   2.07419 
 C                    -5.6017    0.70313   0.53413 
 C                    -4.26667   1.06058   0.32361 
 H                    -2.36586   1.49323   1.23326 
 H                    -7.60126  -0.87231   2.52007 
 H                    -8.14081   0.11598   1.15248 
 H                    -8.02178   0.82106   2.77264 
 H                    -6.26687   0.58204  -0.31719 
 H                    -3.90212   1.23114  -0.68274 
 C                    -5.51966  -0.14301  -2.99486 
 C                    -6.65413  -1.17124  -2.97169 
 H                    -5.86904   0.86463  -2.75137 
 H                    -5.05335  -0.09249  -3.98773 
 H                    -4.74645  -0.40286  -2.2696 
 C                    -7.68716  -1.01242  -4.09696 
 H                    -6.22641  -2.18032  -3.01858 
 H                    -7.17044  -1.11399  -2.00298 
 C                    -8.32823   0.38368  -4.106 
 C                    -8.777    -2.09443  -3.99776 
 H                    -7.15901  -1.1491   -5.05444 
 H                    -9.09098   0.46148  -4.88835 
 H                    -8.81604   0.58829  -3.14468 
 H                    -7.59324   1.175    -4.28 
 H                    -8.34238  -3.10069  -4.00377 
 H                    -9.34478  -1.98396  -3.06601 
 H                    -9.48492  -2.02609  -4.83063 
 C                     2.27985   5.32225  -4.0181 
 C                     3.51789   6.21322  -4.19329 
 H                     1.83944   5.42343  -3.02031 
 H                     1.50936   5.58111  -4.75713 
 H                     2.55749   4.27607  -4.16786 
 C                     4.20265   5.94052  -5.53606 
 C                     3.17132   7.71303  -4.02624 
 H                     4.22551   5.96623  -3.39375 
 H                     5.09241   6.56846  -5.66546 
 H                     3.52306   6.14883  -6.37284 
 H                     4.50212   4.89011  -5.58619 
 C                     2.68361   7.99689  -2.6299 
 H                     4.07325   8.31471  -4.18919 
 H                     2.43675   8.01183  -4.78547 
 N                     1.3976    8.39524  -2.52359 
 O                     3.39396   7.84028  -1.6303 
 C                     0.79912   8.6354   -1.2303 
 H                     0.85477   8.52761  -3.36123 
 H                     1.12041   7.86411  -0.52642 
 H                     1.09162   9.61047  -0.82311 
 H                    -0.28882   8.60368  -1.32213 
 C                    -7.32459   3.81542   0.53137 
 C                    -8.14696   4.7828   -0.04769 
 C                    -6.22523   4.19481   1.30341 
 H                    -7.53502   2.76102   0.38311 
 C                    -7.88971   6.1495    0.12737 
 H                    -9.00104   4.47478  -0.64724 
 C                    -5.96403   5.55344   1.49372 
 H                    -5.58756   3.437     1.74798 
 C                    -8.75306   7.18515  -0.55738 
 C                    -6.78855   6.51881   0.91112 
 H                    -5.11643   5.86305   2.09884 
 H                    -8.33714   7.45469  -1.53696 
 H                    -8.84428   8.12098   0.01705 
 H                    -9.7649    6.80549  -0.73237 
 H                    -6.57428   7.57391   1.06577 
 O                     4.85091  -6.31425  -0.6895 
 H                     5.05544  -5.51419  -0.17475 
 H                     4.61958  -5.87999  -1.53784 
 O                     5.6551    6.26122  -1.24707 
 H                     6.16547   6.40564  -2.05136 
 H                     4.86509   6.83438  -1.33837 
 O                    -2.42267   3.54856   4.78985 
 H                    -2.85375   3.40099   3.93863 
 H                    -2.47144   2.65666   5.22494 
 H                     2.31424  -0.09939   1.77847 
 
 Add virtual bond connecting atoms H276       and N61        Dist= 2.65D+00.
 Add virtual bond connecting atoms H122       and O112       Dist= 2.87D+00.
 Add virtual bond connecting atoms H109       and O43        Dist= 3.13D+00.
 Add virtual bond connecting atoms H275       and O156       Dist= 3.21D+00.
 Add virtual bond connecting atoms O156       and H68        Dist= 3.26D+00.
 Add virtual bond connecting atoms O267       and H97        Dist= 3.28D+00.
 Add virtual bond connecting atoms C40        and O5         Dist= 3.55D+00.
 Add virtual bond connecting atoms H110       and O29        Dist= 3.34D+00.
 Add virtual bond connecting atoms H272       and O246       Dist= 3.41D+00.
 Add virtual bond connecting atoms O270       and H163       Dist= 3.46D+00.
 Add virtual bond connecting atoms O273       and H192       Dist= 3.55D+00.
 Add virtual bond connecting atoms H102       and H118       Dist= 3.82D+00.
 Add virtual bond connecting atoms H269       and O29        Dist= 3.55D+00.
 Add virtual bond connecting atoms H166       and H4         Dist= 3.98D+00.
 Add virtual bond connecting atoms H173       and O43        Dist= 3.92D+00.
 Add virtual bond connecting atoms H178       and H121       Dist= 4.16D+00.
 Add virtual bond connecting atoms H217       and H128       Dist= 4.24D+00.
 Add virtual bond connecting atoms H218       and H54        Dist= 4.39D+00.
 Add virtual bond connecting atoms H204       and O156       Dist= 4.26D+00.
 Add virtual bond connecting atoms H204       and H274       Dist= 4.49D+00.
 Add virtual bond connecting atoms H204       and H275       Dist= 4.54D+00.
 Add virtual bond connecting atoms H208       and H65        Dist= 4.44D+00.
 Add virtual bond connecting atoms H142       and H221       Dist= 4.69D+00.
 Add virtual bond connecting atoms H144       and H50        Dist= 4.56D+00.
 Add virtual bond connecting atoms H144       and H54        Dist= 4.45D+00.
 Add virtual bond connecting atoms H144       and H218       Dist= 4.64D+00.
 Add virtual bond connecting atoms H148       and H49        Dist= 4.52D+00.
 Add virtual bond connecting atoms H255       and H212       Dist= 4.94D+00.
 The following ModRedundant input section has been read:
 B     119     123 F                                                           
 B     119     122 F                                                           
 B     119     121 F                                                           
 X     159 F                                                                   
 X     155 F                                                                   
 X      78 F                                                                   
 X      70 F                                                                   
 X     195 F                                                                   
 X     197 F                                                                   
 X      15 F                                                                   
 X      13 F                                                                   
 X     164 F                                                                   
 X     172 F                                                                   
 X     237 F                                                                   
 X     247 F                                                                   
 X     260 F                                                                   
 X     264 F                                                                   
 X     113 F                                                                   
 X     111 F                                                                   
 X      98 F                                                                   
 X      96 F                                                                   
 X     133 F                                                                   
 X     130 F                                                                   
 X     150 F                                                                   
 X     145 F                                                                   
 X     223 F                                                                   
 X     219 F                                                                   
 X     210 F                                                                   
 X     205 F                                                                   
 
 NAtoms=    276 NQM=      276 NQMF=       0 NMMI=      0 NMMIF=      0
                NMic=       0 NMicF=      0.
                    Isotopes and Nuclear Properties:
 (Nuclear quadrupole moments (NQMom) in fm**2, nuclear magnetic moments (NMagM)
  in nuclear magnetons)

  Atom         1           2           3           4           5           6           7           8           9          10
 IAtWgt=          12          12          14           1          16           1          12           1          12           1
 AtmWgt=  12.0000000  12.0000000  14.0030740   1.0078250  15.9949146   1.0078250  12.0000000   1.0078250  12.0000000   1.0078250
 NucSpn=           0           0           2           1           0           1           0           1           0           1
 AtZEff=   0.0000000   0.0000000   0.0000000   0.0000000   0.0000000   0.0000000   0.0000000   0.0000000   0.0000000   0.0000000
 NQMom=    0.0000000   0.0000000   2.0440000   0.0000000   0.0000000   0.0000000   0.0000000   0.0000000   0.0000000   0.0000000
 NMagM=    0.0000000   0.0000000   0.4037610   2.7928460   0.0000000   2.7928460   0.0000000   2.7928460   0.0000000   2.7928460
 AtZNuc=   6.0000000   6.0000000   7.0000000   1.0000000   8.0000000   1.0000000   6.0000000   1.0000000   6.0000000   1.0000000

  Atom        11          12          13          14          15          16          17          18          19          20
 IAtWgt=          14          16          12          16          12           1          12           1           1          12
 AtmWgt=  14.0030740  15.9949146  12.0000000  15.9949146  12.0000000   1.0078250  12.0000000   1.0078250   1.0078250  12.0000000
 NucSpn=           2           0           0           0           0           1           0           1           1           0
 AtZEff=   0.0000000   0.0000000   0.0000000   0.0000000   0.0000000   0.0000000   0.0000000   0.0000000   0.0000000   0.0000000
 NQMom=    2.0440000   0.0000000   0.0000000   0.0000000   0.0000000   0.0000000   0.0000000   0.0000000   0.0000000   0.0000000
 NMagM=    0.4037610   0.0000000   0.0000000   0.0000000   0.0000000   2.7928460   0.0000000   2.7928460   2.7928460   0.0000000
 AtZNuc=   7.0000000   8.0000000   6.0000000   8.0000000   6.0000000   1.0000000   6.0000000   1.0000000   1.0000000   6.0000000

  Atom        21          22          23          24          25          26          27          28          29          30
 IAtWgt=           1           1          12           1           1          12           1           1          16          16
 AtmWgt=   1.0078250   1.0078250  12.0000000   1.0078250   1.0078250  12.0000000   1.0078250   1.0078250  15.9949146  15.9949146
 NucSpn=           1           1           0           1           1           0           1           1           0           0
 AtZEff=   0.0000000   0.0000000   0.0000000   0.0000000   0.0000000   0.0000000   0.0000000   0.0000000   0.0000000   0.0000000
 NQMom=    0.0000000   0.0000000   0.0000000   0.0000000   0.0000000   0.0000000   0.0000000   0.0000000   0.0000000   0.0000000
 NMagM=    2.7928460   2.7928460   0.0000000   2.7928460   2.7928460   0.0000000   2.7928460   2.7928460   0.0000000   0.0000000
 AtZNuc=   1.0000000   1.0000000   6.0000000   1.0000000   1.0000000   6.0000000   1.0000000   1.0000000   8.0000000   8.0000000

  Atom        31          32          33          34          35          36          37          38          39          40
 IAtWgt=          12          12           1           1           1           1           1           1           1          12
 AtmWgt=  12.0000000  12.0000000   1.0078250   1.0078250   1.0078250   1.0078250   1.0078250   1.0078250   1.0078250  12.0000000
 NucSpn=           0           0           1           1           1           1           1           1           1           0
 AtZEff=   0.0000000   0.0000000   0.0000000   0.0000000   0.0000000   0.0000000   0.0000000   0.0000000   0.0000000   0.0000000
 NQMom=    0.0000000   0.0000000   0.0000000   0.0000000   0.0000000   0.0000000   0.0000000   0.0000000   0.0000000   0.0000000
 NMagM=    0.0000000   0.0000000   2.7928460   2.7928460   2.7928460   2.7928460   2.7928460   2.7928460   2.7928460   0.0000000
 AtZNuc=   6.0000000   6.0000000   1.0000000   1.0000000   1.0000000   1.0000000   1.0000000   1.0000000   1.0000000   6.0000000

  Atom        41          42          43          44          45          46          47          48          49          50
 IAtWgt=          12          16          16           1           1           1          12          12           1           1
 AtmWgt=  12.0000000  15.9949146  15.9949146   1.0078250   1.0078250   1.0078250  12.0000000  12.0000000   1.0078250   1.0078250
 NucSpn=           0           0           0           1           1           1           0           0           1           1
 AtZEff=   0.0000000   0.0000000   0.0000000   0.0000000   0.0000000   0.0000000   0.0000000   0.0000000   0.0000000   0.0000000
 NQMom=    0.0000000   0.0000000   0.0000000   0.0000000   0.0000000   0.0000000   0.0000000   0.0000000   0.0000000   0.0000000
 NMagM=    0.0000000   0.0000000   0.0000000   2.7928460   2.7928460   2.7928460   0.0000000   0.0000000   2.7928460   2.7928460
 AtZNuc=   6.0000000   8.0000000   8.0000000   1.0000000   1.0000000   1.0000000   6.0000000   6.0000000   1.0000000   1.0000000

  Atom        51          52          53          54          55          56          57          58          59          60
 IAtWgt=          12          12          12           1          12           1          12           1           1           1
 AtmWgt=  12.0000000  12.0000000  12.0000000   1.0078250  12.0000000   1.0078250  12.0000000   1.0078250   1.0078250   1.0078250
 NucSpn=           0           0           0           1           0           1           0           1           1           1
 AtZEff=   0.0000000   0.0000000   0.0000000   0.0000000   0.0000000   0.0000000   0.0000000   0.0000000   0.0000000   0.0000000
 NQMom=    0.0000000   0.0000000   0.0000000   0.0000000   0.0000000   0.0000000   0.0000000   0.0000000   0.0000000   0.0000000
 NMagM=    0.0000000   0.0000000   0.0000000   2.7928460   0.0000000   2.7928460   0.0000000   2.7928460   2.7928460   2.7928460
 AtZNuc=   6.0000000   6.0000000   6.0000000   1.0000000   6.0000000   1.0000000   6.0000000   1.0000000   1.0000000   1.0000000

  Atom        61          62          63          64          65          66          67          68          69          70
 IAtWgt=          14          12          12          14           1          12           1           1          12          12
 AtmWgt=  14.0030740  12.0000000  12.0000000  14.0030740   1.0078250  12.0000000   1.0078250   1.0078250  12.0000000  12.0000000
 NucSpn=           2           0           0           2           1           0           1           1           0           0
 AtZEff=   0.0000000   0.0000000   0.0000000   0.0000000   0.0000000   0.0000000   0.0000000   0.0000000   0.0000000   0.0000000
 NQMom=    2.0440000   0.0000000   0.0000000   2.0440000   0.0000000   0.0000000   0.0000000   0.0000000   0.0000000   0.0000000
 NMagM=    0.4037610   0.0000000   0.0000000   0.4037610   2.7928460   0.0000000   2.7928460   2.7928460   0.0000000   0.0000000
 AtZNuc=   7.0000000   6.0000000   6.0000000   7.0000000   1.0000000   6.0000000   1.0000000   1.0000000   6.0000000   6.0000000

  Atom        71          72          73          74          75          76          77          78          79          80
 IAtWgt=           1           1          14           1           1          12           1          12          16          12
 AtmWgt=   1.0078250   1.0078250  14.0030740   1.0078250   1.0078250  12.0000000   1.0078250  12.0000000  15.9949146  12.0000000
 NucSpn=           1           1           2           1           1           0           1           0           0           0
 AtZEff=   0.0000000   0.0000000   0.0000000   0.0000000   0.0000000   0.0000000   0.0000000   0.0000000   0.0000000   0.0000000
 NQMom=    0.0000000   0.0000000   2.0440000   0.0000000   0.0000000   0.0000000   0.0000000   0.0000000   0.0000000   0.0000000
 NMagM=    2.7928460   2.7928460   0.4037610   2.7928460   2.7928460   0.0000000   2.7928460   0.0000000   0.0000000   0.0000000
 AtZNuc=   1.0000000   1.0000000   7.0000000   1.0000000   1.0000000   6.0000000   1.0000000   6.0000000   8.0000000   6.0000000

  Atom        81          82          83          84          85          86          87          88          89          90
 IAtWgt=           1           1          12          12           1           1           1           1          12           1
 AtmWgt=   1.0078250   1.0078250  12.0000000  12.0000000   1.0078250   1.0078250   1.0078250   1.0078250  12.0000000   1.0078250
 NucSpn=           1           1           0           0           1           1           1           1           0           1
 AtZEff=   0.0000000   0.0000000   0.0000000   0.0000000   0.0000000   0.0000000   0.0000000   0.0000000   0.0000000   0.0000000
 NQMom=    0.0000000   0.0000000   0.0000000   0.0000000   0.0000000   0.0000000   0.0000000   0.0000000   0.0000000   0.0000000
 NMagM=    2.7928460   2.7928460   0.0000000   0.0000000   2.7928460   2.7928460   2.7928460   2.7928460   0.0000000   2.7928460
 AtZNuc=   1.0000000   1.0000000   6.0000000   6.0000000   1.0000000   1.0000000   1.0000000   1.0000000   6.0000000   1.0000000

  Atom        91          92          93          94          95          96          97          98          99         100
 IAtWgt=           1           1           1           1          16          12           1          12          12           1
 AtmWgt=   1.0078250   1.0078250   1.0078250   1.0078250  15.9949146  12.0000000   1.0078250  12.0000000  12.0000000   1.0078250
 NucSpn=           1           1           1           1           0           0           1           0           0           1
 AtZEff=   0.0000000   0.0000000   0.0000000   0.0000000   0.0000000   0.0000000   0.0000000   0.0000000   0.0000000   0.0000000
 NQMom=    0.0000000   0.0000000   0.0000000   0.0000000   0.0000000   0.0000000   0.0000000   0.0000000   0.0000000   0.0000000
 NMagM=    2.7928460   2.7928460   2.7928460   2.7928460   0.0000000   0.0000000   2.7928460   0.0000000   0.0000000   2.7928460
 AtZNuc=   1.0000000   1.0000000   1.0000000   1.0000000   8.0000000   6.0000000   1.0000000   6.0000000   6.0000000   1.0000000

  Atom       101         102         103         104         105         106         107         108         109         110
 IAtWgt=           1           1           1           1           1           1          14          12           1           1
 AtmWgt=   1.0078250   1.0078250   1.0078250   1.0078250   1.0078250   1.0078250  14.0030740  12.0000000   1.0078250   1.0078250
 NucSpn=           1           1           1           1           1           1           2           0           1           1
 AtZEff=   0.0000000   0.0000000   0.0000000   0.0000000   0.0000000   0.0000000   0.0000000   0.0000000   0.0000000   0.0000000
 NQMom=    0.0000000   0.0000000   0.0000000   0.0000000   0.0000000   0.0000000   2.0440000   0.0000000   0.0000000   0.0000000
 NMagM=    2.7928460   2.7928460   2.7928460   2.7928460   2.7928460   2.7928460   0.4037610   0.0000000   2.7928460   2.7928460
 AtZNuc=   1.0000000   1.0000000   1.0000000   1.0000000   1.0000000   1.0000000   7.0000000   6.0000000   1.0000000   1.0000000

  Atom       111         112         113         114         115         116         117         118         119         120
 IAtWgt=          12          16          12           1           1           1           1           1          14          12
 AtmWgt=  12.0000000  15.9949146  12.0000000   1.0078250   1.0078250   1.0078250   1.0078250   1.0078250  14.0030740  12.0000000
 NucSpn=           0           0           0           1           1           1           1           1           2           0
 AtZEff=   0.0000000   0.0000000   0.0000000   0.0000000   0.0000000   0.0000000   0.0000000   0.0000000   0.0000000   0.0000000
 NQMom=    0.0000000   0.0000000   0.0000000   0.0000000   0.0000000   0.0000000   0.0000000   0.0000000   2.0440000   0.0000000
 NMagM=    0.0000000   0.0000000   0.0000000   2.7928460   2.7928460   2.7928460   2.7928460   2.7928460   0.4037610   0.0000000
 AtZNuc=   6.0000000   8.0000000   6.0000000   1.0000000   1.0000000   1.0000000   1.0000000   1.0000000   7.0000000   6.0000000

  Atom       121         122         123         124         125         126         127         128         129         130
 IAtWgt=           1           1           1          12           1           1          12           1           1          12
 AtmWgt=   1.0078250   1.0078250   1.0078250  12.0000000   1.0078250   1.0078250  12.0000000   1.0078250   1.0078250  12.0000000
 NucSpn=           1           1           1           0           1           1           0           1           1           0
 AtZEff=   0.0000000   0.0000000   0.0000000   0.0000000   0.0000000   0.0000000   0.0000000   0.0000000   0.0000000   0.0000000
 NQMom=    0.0000000   0.0000000   0.0000000   0.0000000   0.0000000   0.0000000   0.0000000   0.0000000   0.0000000   0.0000000
 NMagM=    2.7928460   2.7928460   2.7928460   0.0000000   2.7928460   2.7928460   0.0000000   2.7928460   2.7928460   0.0000000
 AtZNuc=   1.0000000   1.0000000   1.0000000   6.0000000   1.0000000   1.0000000   6.0000000   1.0000000   1.0000000   6.0000000

  Atom       131         132         133         134         135         136         137         138         139         140
 IAtWgt=           1           1          12           1           1           1           1           1          12          12
 AtmWgt=   1.0078250   1.0078250  12.0000000   1.0078250   1.0078250   1.0078250   1.0078250   1.0078250  12.0000000  12.0000000
 NucSpn=           1           1           0           1           1           1           1           1           0           0
 AtZEff=   0.0000000   0.0000000   0.0000000   0.0000000   0.0000000   0.0000000   0.0000000   0.0000000   0.0000000   0.0000000
 NQMom=    0.0000000   0.0000000   0.0000000   0.0000000   0.0000000   0.0000000   0.0000000   0.0000000   0.0000000   0.0000000
 NMagM=    2.7928460   2.7928460   0.0000000   2.7928460   2.7928460   2.7928460   2.7928460   2.7928460   0.0000000   0.0000000
 AtZNuc=   1.0000000   1.0000000   6.0000000   1.0000000   1.0000000   1.0000000   1.0000000   1.0000000   6.0000000   6.0000000

  Atom       141         142         143         144         145         146         147         148         149         150
 IAtWgt=          12           1          12           1          12          12          12           1           1           1
 AtmWgt=  12.0000000   1.0078250  12.0000000   1.0078250  12.0000000  12.0000000  12.0000000   1.0078250   1.0078250   1.0078250
 NucSpn=           0           1           0           1           0           0           0           1           1           1
 AtZEff=   0.0000000   0.0000000   0.0000000   0.0000000   0.0000000   0.0000000   0.0000000   0.0000000   0.0000000   0.0000000
 NQMom=    0.0000000   0.0000000   0.0000000   0.0000000   0.0000000   0.0000000   0.0000000   0.0000000   0.0000000   0.0000000
 NMagM=    0.0000000   2.7928460   0.0000000   2.7928460   0.0000000   0.0000000   0.0000000   2.7928460   2.7928460   2.7928460
 AtZNuc=   6.0000000   1.0000000   6.0000000   1.0000000   6.0000000   6.0000000   6.0000000   1.0000000   1.0000000   1.0000000

  Atom       151         152         153         154         155         156         157         158         159         160
 IAtWgt=           1           1           1          12          12          16          16           1           1           1
 AtmWgt=   1.0078250   1.0078250   1.0078250  12.0000000  12.0000000  15.9949146  15.9949146   1.0078250   1.0078250   1.0078250
 NucSpn=           1           1           1           0           0           0           0           1           1           1
 AtZEff=   0.0000000   0.0000000   0.0000000   0.0000000   0.0000000   0.0000000   0.0000000   0.0000000   0.0000000   0.0000000
 NQMom=    0.0000000   0.0000000   0.0000000   0.0000000   0.0000000   0.0000000   0.0000000   0.0000000   0.0000000   0.0000000
 NMagM=    2.7928460   2.7928460   2.7928460   0.0000000   0.0000000   0.0000000   0.0000000   2.7928460   2.7928460   2.7928460
 AtZNuc=   1.0000000   1.0000000   1.0000000   6.0000000   6.0000000   8.0000000   8.0000000   1.0000000   1.0000000   1.0000000

  Atom       161         162         163         164         165         166         167         168         169         170
 IAtWgt=          16          12           1          12           1           1          12           1           1          14
 AtmWgt=  15.9949146  12.0000000   1.0078250  12.0000000   1.0078250   1.0078250  12.0000000   1.0078250   1.0078250  14.0030740
 NucSpn=           0           0           1           0           1           1           0           1           1           2
 AtZEff=   0.0000000   0.0000000   0.0000000   0.0000000   0.0000000   0.0000000   0.0000000   0.0000000   0.0000000   0.0000000
 NQMom=    0.0000000   0.0000000   0.0000000   0.0000000   0.0000000   0.0000000   0.0000000   0.0000000   0.0000000   2.0440000
 NMagM=    0.0000000   0.0000000   2.7928460   0.0000000   2.7928460   2.7928460   0.0000000   2.7928460   2.7928460   0.4037610
 AtZNuc=   8.0000000   6.0000000   1.0000000   6.0000000   1.0000000   1.0000000   6.0000000   1.0000000   1.0000000   7.0000000

  Atom       171         172         173         174         175         176         177         178         179         180
 IAtWgt=          16          12           1          12           1           1           1           1           1          12
 AtmWgt=  15.9949146  12.0000000   1.0078250  12.0000000   1.0078250   1.0078250   1.0078250   1.0078250   1.0078250  12.0000000
 NucSpn=           0           0           1           0           1           1           1           1           1           0
 AtZEff=   0.0000000   0.0000000   0.0000000   0.0000000   0.0000000   0.0000000   0.0000000   0.0000000   0.0000000   0.0000000
 NQMom=    0.0000000   0.0000000   0.0000000   0.0000000   0.0000000   0.0000000   0.0000000   0.0000000   0.0000000   0.0000000
 NMagM=    0.0000000   0.0000000   2.7928460   0.0000000   2.7928460   2.7928460   2.7928460   2.7928460   2.7928460   0.0000000
 AtZNuc=   8.0000000   6.0000000   1.0000000   6.0000000   1.0000000   1.0000000   1.0000000   1.0000000   1.0000000   6.0000000

  Atom       181         182         183         184         185         186         187         188         189         190
 IAtWgt=          12          12           1          12           1          12           1          14          12           1
 AtmWgt=  12.0000000  12.0000000   1.0078250  12.0000000   1.0078250  12.0000000   1.0078250  14.0030740  12.0000000   1.0078250
 NucSpn=           0           0           1           0           1           0           1           2           0           1
 AtZEff=   0.0000000   0.0000000   0.0000000   0.0000000   0.0000000   0.0000000   0.0000000   0.0000000   0.0000000   0.0000000
 NQMom=    0.0000000   0.0000000   0.0000000   0.0000000   0.0000000   0.0000000   0.0000000   2.0440000   0.0000000   0.0000000
 NMagM=    0.0000000   0.0000000   2.7928460   0.0000000   2.7928460   0.0000000   2.7928460   0.4037610   0.0000000   2.7928460
 AtZNuc=   6.0000000   6.0000000   1.0000000   6.0000000   1.0000000   6.0000000   1.0000000   7.0000000   6.0000000   1.0000000

  Atom       191         192         193         194         195         196         197         198         199         200
 IAtWgt=          12           1          12           1          12           1           1           1          12          12
 AtmWgt=  12.0000000   1.0078250  12.0000000   1.0078250  12.0000000   1.0078250   1.0078250   1.0078250  12.0000000  12.0000000
 NucSpn=           0           1           0           1           0           1           1           1           0           0
 AtZEff=   0.0000000   0.0000000   0.0000000   0.0000000   0.0000000   0.0000000   0.0000000   0.0000000   0.0000000   0.0000000
 NQMom=    0.0000000   0.0000000   0.0000000   0.0000000   0.0000000   0.0000000   0.0000000   0.0000000   0.0000000   0.0000000
 NMagM=    0.0000000   2.7928460   0.0000000   2.7928460   0.0000000   2.7928460   2.7928460   2.7928460   0.0000000   0.0000000
 AtZNuc=   6.0000000   1.0000000   6.0000000   1.0000000   6.0000000   1.0000000   1.0000000   1.0000000   6.0000000   6.0000000

  Atom       201         202         203         204         205         206         207         208         209         210
 IAtWgt=          12           1          12           1          12          12          12           1           1           1
 AtmWgt=  12.0000000   1.0078250  12.0000000   1.0078250  12.0000000  12.0000000  12.0000000   1.0078250   1.0078250   1.0078250
 NucSpn=           0           1           0           1           0           0           0           1           1           1
 AtZEff=   0.0000000   0.0000000   0.0000000   0.0000000   0.0000000   0.0000000   0.0000000   0.0000000   0.0000000   0.0000000
 NQMom=    0.0000000   0.0000000   0.0000000   0.0000000   0.0000000   0.0000000   0.0000000   0.0000000   0.0000000   0.0000000
 NMagM=    0.0000000   2.7928460   0.0000000   2.7928460   0.0000000   0.0000000   0.0000000   2.7928460   2.7928460   2.7928460
 AtZNuc=   6.0000000   1.0000000   6.0000000   1.0000000   6.0000000   6.0000000   6.0000000   1.0000000   1.0000000   1.0000000

  Atom       211         212         213         214         215         216         217         218         219         220
 IAtWgt=           1           1           1          12          12           1           1           1          12           1
 AtmWgt=   1.0078250   1.0078250   1.0078250  12.0000000  12.0000000   1.0078250   1.0078250   1.0078250  12.0000000   1.0078250
 NucSpn=           1           1           1           0           0           1           1           1           0           1
 AtZEff=   0.0000000   0.0000000   0.0000000   0.0000000   0.0000000   0.0000000   0.0000000   0.0000000   0.0000000   0.0000000
 NQMom=    0.0000000   0.0000000   0.0000000   0.0000000   0.0000000   0.0000000   0.0000000   0.0000000   0.0000000   0.0000000
 NMagM=    2.7928460   2.7928460   2.7928460   0.0000000   0.0000000   2.7928460   2.7928460   2.7928460   0.0000000   2.7928460
 AtZNuc=   1.0000000   1.0000000   1.0000000   6.0000000   6.0000000   1.0000000   1.0000000   1.0000000   6.0000000   1.0000000

  Atom       221         222         223         224         225         226         227         228         229         230
 IAtWgt=           1          12          12           1           1           1           1           1           1           1
 AtmWgt=   1.0078250  12.0000000  12.0000000   1.0078250   1.0078250   1.0078250   1.0078250   1.0078250   1.0078250   1.0078250
 NucSpn=           1           0           0           1           1           1           1           1           1           1
 AtZEff=   0.0000000   0.0000000   0.0000000   0.0000000   0.0000000   0.0000000   0.0000000   0.0000000   0.0000000   0.0000000
 NQMom=    0.0000000   0.0000000   0.0000000   0.0000000   0.0000000   0.0000000   0.0000000   0.0000000   0.0000000   0.0000000
 NMagM=    2.7928460   0.0000000   0.0000000   2.7928460   2.7928460   2.7928460   2.7928460   2.7928460   2.7928460   2.7928460
 AtZNuc=   1.0000000   6.0000000   6.0000000   1.0000000   1.0000000   1.0000000   1.0000000   1.0000000   1.0000000   1.0000000

  Atom       231         232         233         234         235         236         237         238         239         240
 IAtWgt=          12          12           1           1           1          12          12           1           1           1
 AtmWgt=  12.0000000  12.0000000   1.0078250   1.0078250   1.0078250  12.0000000  12.0000000   1.0078250   1.0078250   1.0078250
 NucSpn=           0           0           1           1           1           0           0           1           1           1
 AtZEff=   0.0000000   0.0000000   0.0000000   0.0000000   0.0000000   0.0000000   0.0000000   0.0000000   0.0000000   0.0000000
 NQMom=    0.0000000   0.0000000   0.0000000   0.0000000   0.0000000   0.0000000   0.0000000   0.0000000   0.0000000   0.0000000
 NMagM=    0.0000000   0.0000000   2.7928460   2.7928460   2.7928460   0.0000000   0.0000000   2.7928460   2.7928460   2.7928460
 AtZNuc=   6.0000000   6.0000000   1.0000000   1.0000000   1.0000000   6.0000000   6.0000000   1.0000000   1.0000000   1.0000000

  Atom       241         242         243         244         245         246         247         248         249         250
 IAtWgt=           1          12           1           1          14          16          12           1           1           1
 AtmWgt=   1.0078250  12.0000000   1.0078250   1.0078250  14.0030740  15.9949146  12.0000000   1.0078250   1.0078250   1.0078250
 NucSpn=           1           0           1           1           2           0           0           1           1           1
 AtZEff=   0.0000000   0.0000000   0.0000000   0.0000000   0.0000000   0.0000000   0.0000000   0.0000000   0.0000000   0.0000000
 NQMom=    0.0000000   0.0000000   0.0000000   0.0000000   2.0440000   0.0000000   0.0000000   0.0000000   0.0000000   0.0000000
 NMagM=    2.7928460   0.0000000   2.7928460   2.7928460   0.4037610   0.0000000   0.0000000   2.7928460   2.7928460   2.7928460
 AtZNuc=   1.0000000   6.0000000   1.0000000   1.0000000   7.0000000   8.0000000   6.0000000   1.0000000   1.0000000   1.0000000

  Atom       251         252         253         254         255         256         257         258         259         260
 IAtWgt=           1          12          12          12           1          12           1          12           1          12
 AtmWgt=   1.0078250  12.0000000  12.0000000  12.0000000   1.0078250  12.0000000   1.0078250  12.0000000   1.0078250  12.0000000
 NucSpn=           1           0           0           0           1           0           1           0           1           0
 AtZEff=   0.0000000   0.0000000   0.0000000   0.0000000   0.0000000   0.0000000   0.0000000   0.0000000   0.0000000   0.0000000
 NQMom=    0.0000000   0.0000000   0.0000000   0.0000000   0.0000000   0.0000000   0.0000000   0.0000000   0.0000000   0.0000000
 NMagM=    2.7928460   0.0000000   0.0000000   0.0000000   2.7928460   0.0000000   2.7928460   0.0000000   2.7928460   0.0000000
 AtZNuc=   1.0000000   6.0000000   6.0000000   6.0000000   1.0000000   6.0000000   1.0000000   6.0000000   1.0000000   6.0000000

  Atom       261         262         263         264         265         266         267         268         269         270
 IAtWgt=          12           1           1           1           1           1          16           1           1          16
 AtmWgt=  12.0000000   1.0078250   1.0078250   1.0078250   1.0078250   1.0078250  15.9949146   1.0078250   1.0078250  15.9949146
 NucSpn=           0           1           1           1           1           1           0           1           1           0
 AtZEff=   0.0000000   0.0000000   0.0000000   0.0000000   0.0000000   0.0000000   0.0000000   0.0000000   0.0000000   0.0000000
 NQMom=    0.0000000   0.0000000   0.0000000   0.0000000   0.0000000   0.0000000   0.0000000   0.0000000   0.0000000   0.0000000
 NMagM=    0.0000000   2.7928460   2.7928460   2.7928460   2.7928460   2.7928460   0.0000000   2.7928460   2.7928460   0.0000000
 AtZNuc=   6.0000000   1.0000000   1.0000000   1.0000000   1.0000000   1.0000000   8.0000000   1.0000000   1.0000000   8.0000000

  Atom       271         272         273         274         275         276
 IAtWgt=           1           1          16           1           1           1
 AtmWgt=   1.0078250   1.0078250  15.9949146   1.0078250   1.0078250   1.0078250
 NucSpn=           1           1           0           1           1           1
 AtZEff=   0.0000000   0.0000000   0.0000000   0.0000000   0.0000000   0.0000000
 NQMom=    0.0000000   0.0000000   0.0000000   0.0000000   0.0000000   0.0000000
 NMagM=    2.7928460   2.7928460   0.0000000   2.7928460   2.7928460   2.7928460
 AtZNuc=   1.0000000   1.0000000   8.0000000   1.0000000   1.0000000   1.0000000
 Leave Link  101 at Tue Jun 27 13:54:18 2017, MaxMem=  2147483648 cpu:         6.3
 (Enter /usr/local/g09/l103.exe)

 GradGradGradGradGradGradGradGradGradGradGradGradGradGradGradGradGradGrad
 Berny optimization.
 Initialization pass.
                           ----------------------------
                           !    Initial Parameters    !
                           ! (Angstroms and Degrees)  !
 --------------------------                            --------------------------
 ! Name  Definition              Value          Derivative Info.                !
 --------------------------------------------------------------------------------
 ! X13   R(13,-1)                7.2096         frozen, calculate D2E/DX2 analyt!
 ! Y13   R(13,-2)               -1.819          frozen, calculate D2E/DX2 analyt!
 ! Z13   R(13,-3)               -1.9829         frozen, calculate D2E/DX2 analyt!
 ! X15   R(15,-1)                6.4695         frozen, calculate D2E/DX2 analyt!
 ! Y15   R(15,-2)               -2.1989         frozen, calculate D2E/DX2 analyt!
 ! Z15   R(15,-3)                3.3206         frozen, calculate D2E/DX2 analyt!
 ! X70   R(70,-1)                1.2127         frozen, calculate D2E/DX2 analyt!
 ! Y70   R(70,-2)               -1.6365         frozen, calculate D2E/DX2 analyt!
 ! Z70   R(70,-3)                6.7375         frozen, calculate D2E/DX2 analyt!
 ! X78   R(78,-1)               -1.8557         frozen, calculate D2E/DX2 analyt!
 ! Y78   R(78,-2)               -3.2924         frozen, calculate D2E/DX2 analyt!
 ! Z78   R(78,-3)                5.2687         frozen, calculate D2E/DX2 analyt!
 ! X96   R(96,-1)                1.6589         frozen, calculate D2E/DX2 analyt!
 ! Y96   R(96,-2)               -6.5201         frozen, calculate D2E/DX2 analyt!
 ! Z96   R(96,-3)               -0.5635         frozen, calculate D2E/DX2 analyt!
 ! X98   R(98,-1)                1.2413         frozen, calculate D2E/DX2 analyt!
 ! Y98   R(98,-2)               -7.4164         frozen, calculate D2E/DX2 analyt!
 ! Z98   R(98,-3)               -1.7175         frozen, calculate D2E/DX2 analyt!
 ! X111  R(111,-1)               1.19           frozen, calculate D2E/DX2 analyt!
 ! Y111  R(111,-2)              -3.8096         frozen, calculate D2E/DX2 analyt!
 ! Z111  R(111,-3)              -5.0179         frozen, calculate D2E/DX2 analyt!
 ! X113  R(113,-1)               0.3126         frozen, calculate D2E/DX2 analyt!
 ! Y113  R(113,-2)              -4.9465         frozen, calculate D2E/DX2 analyt!
 ! Z113  R(113,-3)              -4.4889         frozen, calculate D2E/DX2 analyt!
 ! X130  R(130,-1)              -4.6086         frozen, calculate D2E/DX2 analyt!
 ! Y130  R(130,-2)              -4.4521         frozen, calculate D2E/DX2 analyt!
 ! Z130  R(130,-3)              -5.7854         frozen, calculate D2E/DX2 analyt!
 ! X133  R(133,-1)              -5.0882         frozen, calculate D2E/DX2 analyt!
 ! Y133  R(133,-2)              -5.8788         frozen, calculate D2E/DX2 analyt!
 ! Z133  R(133,-3)              -5.5053         frozen, calculate D2E/DX2 analyt!
 ! X145  R(145,-1)              -6.9181         frozen, calculate D2E/DX2 analyt!
 ! Y145  R(145,-2)              -4.9709         frozen, calculate D2E/DX2 analyt!
 ! Z145  R(145,-3)              -0.5967         frozen, calculate D2E/DX2 analyt!
 ! X150  R(150,-1)              -7.4668         frozen, calculate D2E/DX2 analyt!
 ! Y150  R(150,-2)              -5.0671         frozen, calculate D2E/DX2 analyt!
 ! Z150  R(150,-3)              -1.5447         frozen, calculate D2E/DX2 analyt!
 ! X155  R(155,-1)              -4.3504         frozen, calculate D2E/DX2 analyt!
 ! Y155  R(155,-2)               1.0012         frozen, calculate D2E/DX2 analyt!
 ! Z155  R(155,-3)               7.0622         frozen, calculate D2E/DX2 analyt!
 ! X159  R(159,-1)              -4.8501         frozen, calculate D2E/DX2 analyt!
 ! Y159  R(159,-2)               0.3701         frozen, calculate D2E/DX2 analyt!
 ! Z159  R(159,-3)               7.8119         frozen, calculate D2E/DX2 analyt!
 ! X164  R(164,-1)               5.1895         frozen, calculate D2E/DX2 analyt!
 ! Y164  R(164,-2)               2.2957         frozen, calculate D2E/DX2 analyt!
 ! Z164  R(164,-3)              -2.4931         frozen, calculate D2E/DX2 analyt!
 ! X172  R(172,-1)               2.6056         frozen, calculate D2E/DX2 analyt!
 ! Y172  R(172,-2)               0.4323         frozen, calculate D2E/DX2 analyt!
 ! Z172  R(172,-3)              -4.5868         frozen, calculate D2E/DX2 analyt!
 ! X195  R(195,-1)               3.9306         frozen, calculate D2E/DX2 analyt!
 ! Y195  R(195,-2)               2.9269         frozen, calculate D2E/DX2 analyt!
 ! Z195  R(195,-3)               4.0531         frozen, calculate D2E/DX2 analyt!
 ! X197  R(197,-1)               4.6223         frozen, calculate D2E/DX2 analyt!
 ! Y197  R(197,-2)               3.3884         frozen, calculate D2E/DX2 analyt!
 ! Z197  R(197,-3)               4.7725         frozen, calculate D2E/DX2 analyt!
 ! X205  R(205,-1)              -7.5404         frozen, calculate D2E/DX2 analyt!
 ! Y205  R(205,-2)               0.1277         frozen, calculate D2E/DX2 analyt!
 ! Z205  R(205,-3)               2.0742         frozen, calculate D2E/DX2 analyt!
 ! X210  R(210,-1)              -8.1408         frozen, calculate D2E/DX2 analyt!
 ! Y210  R(210,-2)               0.116          frozen, calculate D2E/DX2 analyt!
 ! Z210  R(210,-3)               1.1525         frozen, calculate D2E/DX2 analyt!
 ! X219  R(219,-1)              -7.6872         frozen, calculate D2E/DX2 analyt!
 ! Y219  R(219,-2)              -1.0124         frozen, calculate D2E/DX2 analyt!
 ! Z219  R(219,-3)              -4.097          frozen, calculate D2E/DX2 analyt!
 ! X223  R(223,-1)              -8.777          frozen, calculate D2E/DX2 analyt!
 ! Y223  R(223,-2)              -2.0944         frozen, calculate D2E/DX2 analyt!
 ! Z223  R(223,-3)              -3.9978         frozen, calculate D2E/DX2 analyt!
 ! X237  R(237,-1)               3.1713         frozen, calculate D2E/DX2 analyt!
 ! Y237  R(237,-2)               7.713          frozen, calculate D2E/DX2 analyt!
 ! Z237  R(237,-3)              -4.0262         frozen, calculate D2E/DX2 analyt!
 ! X247  R(247,-1)               0.7991         frozen, calculate D2E/DX2 analyt!
 ! Y247  R(247,-2)               8.6354         frozen, calculate D2E/DX2 analyt!
 ! Z247  R(247,-3)              -1.2303         frozen, calculate D2E/DX2 analyt!
 ! X260  R(260,-1)              -8.7531         frozen, calculate D2E/DX2 analyt!
 ! Y260  R(260,-2)               7.1851         frozen, calculate D2E/DX2 analyt!
 ! Z260  R(260,-3)              -0.5574         frozen, calculate D2E/DX2 analyt!
 ! X264  R(264,-1)              -8.8443         frozen, calculate D2E/DX2 analyt!
 ! Y264  R(264,-2)               8.121          frozen, calculate D2E/DX2 analyt!
 ! Z264  R(264,-3)               0.0171         frozen, calculate D2E/DX2 analyt!
 ! R1    R(1,2)                  1.5317         calculate D2E/DX2 analytically  !
 ! R2    R(1,3)                  1.4562         calculate D2E/DX2 analytically  !
 ! R3    R(1,7)                  1.5417         calculate D2E/DX2 analytically  !
 ! R4    R(1,8)                  1.0943         calculate D2E/DX2 analytically  !
 ! R5    R(2,4)                  1.0935         calculate D2E/DX2 analytically  !
 ! R6    R(2,5)                  1.4225         calculate D2E/DX2 analytically  !
 ! R7    R(2,6)                  1.0931         calculate D2E/DX2 analytically  !
 ! R8    R(3,9)                  1.3732         calculate D2E/DX2 analytically  !
 ! R9    R(3,10)                 1.0173         calculate D2E/DX2 analytically  !
 ! R10   R(4,166)                2.1086         calculate D2E/DX2 analytically  !
 ! R11   R(5,40)                 1.8762         calculate D2E/DX2 analytically  !
 ! R12   R(5,276)                1.0927         calculate D2E/DX2 analytically  !
 ! R13   R(7,11)                 1.3533         calculate D2E/DX2 analytically  !
 ! R14   R(7,12)                 1.2321         calculate D2E/DX2 analytically  !
 ! R15   R(9,13)                 1.5319         calculate D2E/DX2 analytically  !
 ! R16   R(9,14)                 1.2278         calculate D2E/DX2 analytically  !
 ! R17   R(11,15)                1.455          calculate D2E/DX2 analytically  !
 ! R18   R(11,16)                1.0114         calculate D2E/DX2 analytically  !
 ! R19   R(13,17)                1.5373         calculate D2E/DX2 analytically  !
 ! R20   R(13,18)                1.0928         calculate D2E/DX2 analytically  !
 ! R21   R(13,19)                1.0965         calculate D2E/DX2 analytically  !
 ! R22   R(15,20)                1.5351         calculate D2E/DX2 analytically  !
 ! R23   R(15,21)                1.0925         calculate D2E/DX2 analytically  !
 ! R24   R(15,22)                1.0991         calculate D2E/DX2 analytically  !
 ! R25   R(17,23)                1.5387         calculate D2E/DX2 analytically  !
 ! R26   R(17,24)                1.0945         calculate D2E/DX2 analytically  !
 ! R27   R(17,25)                1.0989         calculate D2E/DX2 analytically  !
 ! R28   R(20,26)                1.5433         calculate D2E/DX2 analytically  !
 ! R29   R(20,27)                1.0995         calculate D2E/DX2 analytically  !
 ! R30   R(20,28)                1.0998         calculate D2E/DX2 analytically  !
 ! R31   R(23,29)                1.2718         calculate D2E/DX2 analytically  !
 ! R32   R(23,30)                1.2636         calculate D2E/DX2 analytically  !
 ! R33   R(26,31)                1.5341         calculate D2E/DX2 analytically  !
 ! R34   R(26,32)                1.5356         calculate D2E/DX2 analytically  !
 ! R35   R(26,33)                1.0961         calculate D2E/DX2 analytically  !
 ! R36   R(29,110)               1.7681         calculate D2E/DX2 analytically  !
 ! R37   R(29,269)               1.881          calculate D2E/DX2 analytically  !
 ! R38   R(31,34)                1.0934         calculate D2E/DX2 analytically  !
 ! R39   R(31,35)                1.0979         calculate D2E/DX2 analytically  !
 ! R40   R(31,36)                1.0928         calculate D2E/DX2 analytically  !
 ! R41   R(32,37)                1.097          calculate D2E/DX2 analytically  !
 ! R42   R(32,38)                1.0978         calculate D2E/DX2 analytically  !
 ! R43   R(32,39)                1.0943         calculate D2E/DX2 analytically  !
 ! R44   R(40,41)                1.5117         calculate D2E/DX2 analytically  !
 ! R45   R(40,42)                1.4224         calculate D2E/DX2 analytically  !
 ! R46   R(40,43)                1.248          calculate D2E/DX2 analytically  !
 ! R47   R(41,44)                1.0903         calculate D2E/DX2 analytically  !
 ! R48   R(41,45)                1.0965         calculate D2E/DX2 analytically  !
 ! R49   R(41,46)                1.0893         calculate D2E/DX2 analytically  !
 ! R50   R(42,47)                1.4179         calculate D2E/DX2 analytically  !
 ! R51   R(43,109)               1.6546         calculate D2E/DX2 analytically  !
 ! R52   R(43,173)               2.0739         calculate D2E/DX2 analytically  !
 ! R53   R(47,48)                1.5128         calculate D2E/DX2 analytically  !
 ! R54   R(47,49)                1.0973         calculate D2E/DX2 analytically  !
 ! R55   R(47,50)                1.0984         calculate D2E/DX2 analytically  !
 ! R56   R(48,51)                1.4031         calculate D2E/DX2 analytically  !
 ! R57   R(48,52)                1.3955         calculate D2E/DX2 analytically  !
 ! R58   R(49,148)               2.3935         calculate D2E/DX2 analytically  !
 ! R59   R(50,144)               2.4132         calculate D2E/DX2 analytically  !
 ! R60   R(51,53)                1.3971         calculate D2E/DX2 analytically  !
 ! R61   R(51,54)                1.088          calculate D2E/DX2 analytically  !
 ! R62   R(52,55)                1.3981         calculate D2E/DX2 analytically  !
 ! R63   R(52,56)                1.084          calculate D2E/DX2 analytically  !
 ! R64   R(53,57)                1.4003         calculate D2E/DX2 analytically  !
 ! R65   R(53,58)                1.089          calculate D2E/DX2 analytically  !
 ! R66   R(54,144)               2.357          calculate D2E/DX2 analytically  !
 ! R67   R(54,218)               2.3249         calculate D2E/DX2 analytically  !
 ! R68   R(55,57)                1.3948         calculate D2E/DX2 analytically  !
 ! R69   R(55,59)                1.0844         calculate D2E/DX2 analytically  !
 ! R70   R(57,60)                1.0861         calculate D2E/DX2 analytically  !
 ! R71   R(61,62)                1.326          calculate D2E/DX2 analytically  !
 ! R72   R(61,63)                1.3718         calculate D2E/DX2 analytically  !
 ! R73   R(61,276)               1.4021         calculate D2E/DX2 analytically  !
 ! R74   R(62,64)                1.3527         calculate D2E/DX2 analytically  !
 ! R75   R(62,65)                1.0775         calculate D2E/DX2 analytically  !
 ! R76   R(63,66)                1.3695         calculate D2E/DX2 analytically  !
 ! R77   R(63,67)                1.0794         calculate D2E/DX2 analytically  !
 ! R78   R(64,66)                1.3807         calculate D2E/DX2 analytically  !
 ! R79   R(64,68)                1.0435         calculate D2E/DX2 analytically  !
 ! R80   R(65,208)               2.3492         calculate D2E/DX2 analytically  !
 ! R81   R(66,69)                1.4861         calculate D2E/DX2 analytically  !
 ! R82   R(68,156)               1.7254         calculate D2E/DX2 analytically  !
 ! R83   R(69,70)                1.5381         calculate D2E/DX2 analytically  !
 ! R84   R(69,71)                1.0957         calculate D2E/DX2 analytically  !
 ! R85   R(69,72)                1.0965         calculate D2E/DX2 analytically  !
 ! R86   R(70,73)                1.4455         calculate D2E/DX2 analytically  !
 ! R87   R(70,74)                1.0917         calculate D2E/DX2 analytically  !
 ! R88   R(70,75)                1.1011         calculate D2E/DX2 analytically  !
 ! R89   R(73,76)                1.3584         calculate D2E/DX2 analytically  !
 ! R90   R(73,77)                1.0258         calculate D2E/DX2 analytically  !
 ! R91   R(76,78)                1.5188         calculate D2E/DX2 analytically  !
 ! R92   R(76,79)                1.2339         calculate D2E/DX2 analytically  !
 ! R93   R(78,80)                1.5469         calculate D2E/DX2 analytically  !
 ! R94   R(78,81)                1.0938         calculate D2E/DX2 analytically  !
 ! R95   R(78,82)                1.0972         calculate D2E/DX2 analytically  !
 ! R96   R(80,83)                1.5355         calculate D2E/DX2 analytically  !
 ! R97   R(80,84)                1.5442         calculate D2E/DX2 analytically  !
 ! R98   R(80,85)                1.1001         calculate D2E/DX2 analytically  !
 ! R99   R(83,86)                1.095          calculate D2E/DX2 analytically  !
 ! R100  R(83,87)                1.0978         calculate D2E/DX2 analytically  !
 ! R101  R(83,88)                1.0915         calculate D2E/DX2 analytically  !
 ! R102  R(84,89)                1.5283         calculate D2E/DX2 analytically  !
 ! R103  R(84,90)                1.0978         calculate D2E/DX2 analytically  !
 ! R104  R(84,91)                1.1001         calculate D2E/DX2 analytically  !
 ! R105  R(89,92)                1.0935         calculate D2E/DX2 analytically  !
 ! R106  R(89,93)                1.0969         calculate D2E/DX2 analytically  !
 ! R107  R(89,94)                1.0916         calculate D2E/DX2 analytically  !
 ! R108  R(95,96)                1.4166         calculate D2E/DX2 analytically  !
 ! R109  R(95,97)                0.9862         calculate D2E/DX2 analytically  !
 ! R110  R(96,98)                1.5197         calculate D2E/DX2 analytically  !
 ! R111  R(96,99)                1.5295         calculate D2E/DX2 analytically  !
 ! R112  R(96,100)               1.1037         calculate D2E/DX2 analytically  !
 ! R113  R(97,267)               1.7365         calculate D2E/DX2 analytically  !
 ! R114  R(98,101)               1.096          calculate D2E/DX2 analytically  !
 ! R115  R(98,102)               1.0962         calculate D2E/DX2 analytically  !
 ! R116  R(98,103)               1.0954         calculate D2E/DX2 analytically  !
 ! R117  R(99,104)               1.096          calculate D2E/DX2 analytically  !
 ! R118  R(99,105)               1.097          calculate D2E/DX2 analytically  !
 ! R119  R(99,106)               1.0929         calculate D2E/DX2 analytically  !
 ! R120  R(102,118)              2.0217         calculate D2E/DX2 analytically  !
 ! R121  R(107,108)              1.3138         calculate D2E/DX2 analytically  !
 ! R122  R(107,109)              1.0379         calculate D2E/DX2 analytically  !
 ! R123  R(107,110)              1.0329         calculate D2E/DX2 analytically  !
 ! R124  R(108,111)              1.5105         calculate D2E/DX2 analytically  !
 ! R125  R(108,112)              1.2675         calculate D2E/DX2 analytically  !
 ! R126  R(111,113)              1.5304         calculate D2E/DX2 analytically  !
 ! R127  R(111,114)              1.0938         calculate D2E/DX2 analytically  !
 ! R128  R(111,115)              1.0971         calculate D2E/DX2 analytically  !
 ! R129  R(112,122)              1.5202         calculate D2E/DX2 analytically  !
 ! R130  R(113,116)              1.0934         calculate D2E/DX2 analytically  !
 ! R131  R(113,117)              1.0945         calculate D2E/DX2 analytically  !
 ! R132  R(113,118)              1.0909         calculate D2E/DX2 analytically  !
 ! R133  R(119,120)              1.5061         calculate D2E/DX2 analytically  !
 ! R134  R(119,121)              1.025          frozen, calculate D2E/DX2 analyt!
 ! R135  R(119,122)              1.025          frozen, calculate D2E/DX2 analyt!
 ! R136  R(119,123)              1.025          frozen, calculate D2E/DX2 analyt!
 ! R137  R(120,124)              1.5285         calculate D2E/DX2 analytically  !
 ! R138  R(120,125)              1.0927         calculate D2E/DX2 analytically  !
 ! R139  R(120,126)              1.0937         calculate D2E/DX2 analytically  !
 ! R140  R(121,178)              2.1992         calculate D2E/DX2 analytically  !
 ! R141  R(124,127)              1.5333         calculate D2E/DX2 analytically  !
 ! R142  R(124,128)              1.095          calculate D2E/DX2 analytically  !
 ! R143  R(124,129)              1.096          calculate D2E/DX2 analytically  !
 ! R144  R(127,130)              1.5434         calculate D2E/DX2 analytically  !
 ! R145  R(127,131)              1.0945         calculate D2E/DX2 analytically  !
 ! R146  R(127,132)              1.0977         calculate D2E/DX2 analytically  !
 ! R147  R(128,217)              2.2443         calculate D2E/DX2 analytically  !
 ! R148  R(130,133)              1.531          calculate D2E/DX2 analytically  !
 ! R149  R(130,134)              1.0978         calculate D2E/DX2 analytically  !
 ! R150  R(130,135)              1.0987         calculate D2E/DX2 analytically  !
 ! R151  R(133,136)              1.0952         calculate D2E/DX2 analytically  !
 ! R152  R(133,137)              1.0956         calculate D2E/DX2 analytically  !
 ! R153  R(133,138)              1.0951         calculate D2E/DX2 analytically  !
 ! R154  R(139,140)              1.3968         calculate D2E/DX2 analytically  !
 ! R155  R(139,141)              1.4012         calculate D2E/DX2 analytically  !
 ! R156  R(139,142)              1.0858         calculate D2E/DX2 analytically  !
 ! R157  R(140,143)              1.3958         calculate D2E/DX2 analytically  !
 ! R158  R(140,144)              1.0856         calculate D2E/DX2 analytically  !
 ! R159  R(141,145)              1.5149         calculate D2E/DX2 analytically  !
 ! R160  R(141,146)              1.4035         calculate D2E/DX2 analytically  !
 ! R161  R(142,221)              2.4792         calculate D2E/DX2 analytically  !
 ! R162  R(143,147)              1.3978         calculate D2E/DX2 analytically  !
 ! R163  R(143,148)              1.0855         calculate D2E/DX2 analytically  !
 ! R164  R(144,218)              2.4562         calculate D2E/DX2 analytically  !
 ! R165  R(145,149)              1.0943         calculate D2E/DX2 analytically  !
 ! R166  R(145,150)              1.0996         calculate D2E/DX2 analytically  !
 ! R167  R(145,151)              1.0938         calculate D2E/DX2 analytically  !
 ! R168  R(146,147)              1.3964         calculate D2E/DX2 analytically  !
 ! R169  R(146,152)              1.0875         calculate D2E/DX2 analytically  !
 ! R170  R(147,153)              1.0859         calculate D2E/DX2 analytically  !
 ! R171  R(154,155)              1.5437         calculate D2E/DX2 analytically  !
 ! R172  R(154,156)              1.2883         calculate D2E/DX2 analytically  !
 ! R173  R(154,157)              1.2449         calculate D2E/DX2 analytically  !
 ! R174  R(155,158)              1.0953         calculate D2E/DX2 analytically  !
 ! R175  R(155,159)              1.0999         calculate D2E/DX2 analytically  !
 ! R176  R(155,160)              1.095          calculate D2E/DX2 analytically  !
 ! R177  R(156,204)              2.2542         calculate D2E/DX2 analytically  !
 ! R178  R(156,275)              1.6967         calculate D2E/DX2 analytically  !
 ! R179  R(161,162)              1.413          calculate D2E/DX2 analytically  !
 ! R180  R(161,163)              0.9769         calculate D2E/DX2 analytically  !
 ! R181  R(162,164)              1.5412         calculate D2E/DX2 analytically  !
 ! R182  R(162,165)              1.0959         calculate D2E/DX2 analytically  !
 ! R183  R(162,166)              1.0976         calculate D2E/DX2 analytically  !
 ! R184  R(163,270)              1.8313         calculate D2E/DX2 analytically  !
 ! R185  R(164,167)              1.5179         calculate D2E/DX2 analytically  !
 ! R186  R(164,168)              1.0887         calculate D2E/DX2 analytically  !
 ! R187  R(164,169)              1.0923         calculate D2E/DX2 analytically  !
 ! R188  R(167,170)              1.3636         calculate D2E/DX2 analytically  !
 ! R189  R(167,171)              1.2384         calculate D2E/DX2 analytically  !
 ! R190  R(170,172)              1.4555         calculate D2E/DX2 analytically  !
 ! R191  R(170,173)              1.0153         calculate D2E/DX2 analytically  !
 ! R192  R(172,174)              1.5289         calculate D2E/DX2 analytically  !
 ! R193  R(172,175)              1.0892         calculate D2E/DX2 analytically  !
 ! R194  R(172,176)              1.0934         calculate D2E/DX2 analytically  !
 ! R195  R(174,177)              1.0921         calculate D2E/DX2 analytically  !
 ! R196  R(174,178)              1.1006         calculate D2E/DX2 analytically  !
 ! R197  R(174,179)              1.0894         calculate D2E/DX2 analytically  !
 ! R198  R(180,181)              1.3933         calculate D2E/DX2 analytically  !
 ! R199  R(180,182)              1.4128         calculate D2E/DX2 analytically  !
 ! R200  R(180,183)              1.0878         calculate D2E/DX2 analytically  !
 ! R201  R(181,184)              1.3996         calculate D2E/DX2 analytically  !
 ! R202  R(181,185)              1.087          calculate D2E/DX2 analytically  !
 ! R203  R(182,186)              1.3932         calculate D2E/DX2 analytically  !
 ! R204  R(182,187)              1.0868         calculate D2E/DX2 analytically  !
 ! R205  R(184,188)              1.374          calculate D2E/DX2 analytically  !
 ! R206  R(184,189)              1.4291         calculate D2E/DX2 analytically  !
 ! R207  R(186,189)              1.4058         calculate D2E/DX2 analytically  !
 ! R208  R(186,190)              1.0855         calculate D2E/DX2 analytically  !
 ! R209  R(188,191)              1.3831         calculate D2E/DX2 analytically  !
 ! R210  R(188,192)              1.0256         calculate D2E/DX2 analytically  !
 ! R211  R(189,193)              1.4433         calculate D2E/DX2 analytically  !
 ! R212  R(191,193)              1.3761         calculate D2E/DX2 analytically  !
 ! R213  R(191,194)              1.0805         calculate D2E/DX2 analytically  !
 ! R214  R(192,273)              1.88           calculate D2E/DX2 analytically  !
 ! R215  R(193,195)              1.5014         calculate D2E/DX2 analytically  !
 ! R216  R(195,196)              1.0927         calculate D2E/DX2 analytically  !
 ! R217  R(195,197)              1.0995         calculate D2E/DX2 analytically  !
 ! R218  R(195,198)              1.089          calculate D2E/DX2 analytically  !
 ! R219  R(199,200)              1.3962         calculate D2E/DX2 analytically  !
 ! R220  R(199,201)              1.4025         calculate D2E/DX2 analytically  !
 ! R221  R(199,202)              1.0869         calculate D2E/DX2 analytically  !
 ! R222  R(200,203)              1.3996         calculate D2E/DX2 analytically  !
 ! R223  R(200,204)              1.0867         calculate D2E/DX2 analytically  !
 ! R224  R(201,205)              1.5107         calculate D2E/DX2 analytically  !
 ! R225  R(201,206)              1.3995         calculate D2E/DX2 analytically  !
 ! R226  R(203,207)              1.3962         calculate D2E/DX2 analytically  !
 ! R227  R(203,208)              1.0865         calculate D2E/DX2 analytically  !
 ! R228  R(204,274)              2.3748         calculate D2E/DX2 analytically  !
 ! R229  R(204,275)              2.4024         calculate D2E/DX2 analytically  !
 ! R230  R(205,209)              1.0966         calculate D2E/DX2 analytically  !
 ! R231  R(205,210)              1.1001         calculate D2E/DX2 analytically  !
 ! R232  R(205,211)              1.0956         calculate D2E/DX2 analytically  !
 ! R233  R(206,207)              1.398          calculate D2E/DX2 analytically  !
 ! R234  R(206,212)              1.0871         calculate D2E/DX2 analytically  !
 ! R235  R(207,213)              1.0839         calculate D2E/DX2 analytically  !
 ! R236  R(212,255)              2.6166         calculate D2E/DX2 analytically  !
 ! R237  R(214,215)              1.5313         calculate D2E/DX2 analytically  !
 ! R238  R(214,216)              1.0939         calculate D2E/DX2 analytically  !
 ! R239  R(214,217)              1.0981         calculate D2E/DX2 analytically  !
 ! R240  R(214,218)              1.0915         calculate D2E/DX2 analytically  !
 ! R241  R(215,219)              1.5358         calculate D2E/DX2 analytically  !
 ! R242  R(215,220)              1.097          calculate D2E/DX2 analytically  !
 ! R243  R(215,221)              1.0992         calculate D2E/DX2 analytically  !
 ! R244  R(219,222)              1.5363         calculate D2E/DX2 analytically  !
 ! R245  R(219,223)              1.5389         calculate D2E/DX2 analytically  !
 ! R246  R(219,224)              1.102          calculate D2E/DX2 analytically  !
 ! R247  R(222,225)              1.0954         calculate D2E/DX2 analytically  !
 ! R248  R(222,226)              1.0972         calculate D2E/DX2 analytically  !
 ! R249  R(222,227)              1.0939         calculate D2E/DX2 analytically  !
 ! R250  R(223,228)              1.0961         calculate D2E/DX2 analytically  !
 ! R251  R(223,229)              1.0967         calculate D2E/DX2 analytically  !
[...]
   138  H    0.116761
   139  C   -0.127099
   140  C   -0.093562
   141  C    0.124793
   142  H    0.091029
   143  C   -0.105002
   144  H    0.104808
   145  C   -0.381081
   146  C   -0.127463
   147  C   -0.091714
   148  H    0.105078
   149  H    0.119965
   150  H    0.114193
   151  H    0.117339
   152  H    0.077468
   153  H    0.103185
   154  C    0.570551
   155  C   -0.387705
   156  O   -0.612552
   157  O   -0.546125
   158  H    0.117824
   159  H    0.104855
   160  H    0.104692
   161  O   -0.562446
   162  C    0.048371
   163  H    0.347383
   164  C   -0.256537
   165  H    0.093957
   166  H    0.093567
   167  C    0.556902
   168  H    0.138971
   169  H    0.112012
   170  N   -0.533010
   171  O   -0.555251
   172  C   -0.036820
   173  H    0.311000
   174  C   -0.322682
   175  H    0.093268
   176  H    0.114623
   177  H    0.125924
   178  H    0.013846
   179  H    0.153176
   180  C   -0.125282
   181  C   -0.114613
   182  C   -0.126040
   183  H    0.040655
   184  C    0.269777
   185  H    0.058262
   186  C   -0.161816
   187  H    0.069307
   188  N   -0.622741
   189  C    0.051210
   190  H    0.113786
   191  C    0.054967
   192  H    0.286350
   193  C    0.048705
   194  H    0.088826
   195  C   -0.377996
   196  H    0.129344
   197  H    0.080485
   198  H    0.131066
   199  C   -0.127922
   200  C   -0.110717
   201  C    0.130032
   202  H    0.089791
   203  C   -0.118916
   204  H    0.127787
   205  C   -0.382795
   206  C   -0.135201
   207  C   -0.091254
   208  H    0.106564
   209  H    0.126535
   210  H    0.093889
   211  H    0.123874
   212  H    0.067024
   213  H    0.092035
   214  C   -0.327588
   215  C   -0.177504
   216  H    0.115702
   217  H    0.069839
   218  H    0.125881
   219  C   -0.051304
   220  H    0.102647
   221  H    0.094870
   222  C   -0.309226
   223  C   -0.310856
   224  H    0.071304
   225  H    0.094377
   226  H    0.101592
   227  H    0.101067
   228  H    0.097989
   229  H    0.102138
   230  H    0.094563
   231  C   -0.343945
   232  C   -0.059196
   233  H    0.108870
   234  H    0.068212
   235  H    0.157224
   236  C   -0.328716
   237  C   -0.237382
   238  H    0.094761
   239  H    0.077564
   240  H    0.078227
   241  H    0.162708
   242  C    0.599089
   243  H    0.114088
   244  H    0.074177
   245  N   -0.511729
   246  O   -0.548820
   247  C   -0.178701
   248  H    0.261352
   249  H    0.179490
   250  H    0.122468
   251  H    0.102921
   252  C   -0.084926
   253  C   -0.124194
   254  C   -0.089175
   255  H    0.076682
   256  C    0.125642
   257  H    0.062657
   258  C   -0.090954
   259  H    0.107437
   260  C   -0.379721
   261  C   -0.121385
   262  H    0.092764
   263  H    0.118778
   264  H    0.108774
   265  H    0.106386
   266  H    0.069859
   267  O   -0.675895
   268  H    0.330567
   269  H    0.333769
   270  O   -0.643233
   271  H    0.305167
   272  H    0.360563
   273  O   -0.663456
   274  H    0.294029
   275  H    0.351278
   276  H    0.475201
 Sum of Mulliken charges =  -1.00000
 Mulliken charges with hydrogens summed into heavy atoms:
               1
     1  C    0.147009
     2  C    0.281236
     3  N   -0.276667
     5  O   -0.142780
     7  C    0.624617
     9  C    0.559833
    11  N   -0.259638
    12  O   -0.553678
    13  C   -0.006544
    14  O   -0.531576
    15  C    0.191108
    17  C   -0.052609
    20  C   -0.031020
    23  C    0.604237
    26  C    0.043825
    29  O   -0.641577
    30  O   -0.586791
    31  C   -0.002671
    32  C   -0.033732
    40  C    0.648557
    41  C    0.046208
    42  O   -0.515806
    43  O   -0.581903
    47  C    0.250143
    48  C    0.104202
    51  C   -0.084833
    52  C    0.031899
    53  C   -0.060598
    55  C    0.032151
    57  C   -0.007759
    61  N   -0.573744
    62  C    0.428288
    63  C    0.168465
    64  N   -0.227341
    66  C    0.271830
    69  C   -0.041829
    70  C    0.199449
    73  N   -0.245531
    76  C    0.569444
    78  C   -0.044826
    79  O   -0.543799
    80  C    0.041786
    83  C   -0.013159
    84  C   -0.003550
    89  C   -0.037216
    95  O   -0.231964
    96  C    0.234046
    98  C   -0.056135
    99  C   -0.018194
   107  N    0.058281
   108  C    0.570917
   111  C   -0.030114
   112  O   -0.616730
   113  C    0.036508
   119  N    0.471492
   120  C    0.185294
   124  C    0.042395
   127  C    0.046266
   130  C   -0.003826
   133  C    0.004383
   139  C   -0.036070
   140  C    0.011246
   141  C    0.124793
   143  C    0.000077
   145  C   -0.029585
   146  C   -0.049995
   147  C    0.011471
   154  C    0.570551
   155  C   -0.060335
   156  O   -0.612552
   157  O   -0.546125
   161  O   -0.215063
   162  C    0.235895
   164  C   -0.005555
   167  C    0.556902
   170  N   -0.222010
   171  O   -0.555251
   172  C    0.171072
   174  C   -0.029736
   180  C   -0.084628
   181  C   -0.056351
   182  C   -0.056733
   184  C    0.269777
   186  C   -0.048030
   188  N   -0.336391
   189  C    0.051210
   191  C    0.143793
   193  C    0.048705
   195  C   -0.037101
   199  C   -0.038131
   200  C    0.017070
   201  C    0.130032
   203  C   -0.012352
   205  C   -0.038497
   206  C   -0.068178
   207  C    0.000780
   214  C   -0.016166
   215  C    0.020013
   219  C    0.020000
   222  C   -0.012190
   223  C   -0.016166
   231  C   -0.009640
   232  C    0.035565
   236  C   -0.010217
   237  C   -0.049117
   242  C    0.599089
   245  N   -0.250377
   246  O   -0.548820
   247  C    0.226178
   252  C   -0.008244
   253  C   -0.061537
   254  C    0.018262
   256  C    0.125642
   258  C    0.001810
   260  C   -0.045783
   261  C   -0.051525
   267  O   -0.011558
   270  O    0.022497
   273  O   -0.018149
 Electronic spatial extent (au):  <R**2>=         146989.4007
 Charge=             -1.0000 electrons
 Dipole moment (field-independent basis, Debye):
    X=            -23.6213    Y=              6.1292    Z=            -25.5312  Tot=             35.3182
 Quadrupole moment (field-independent basis, Debye-Ang):
   XX=           -851.3171   YY=           -831.3671   ZZ=           -763.5389
   XY=             27.6434   XZ=             51.5948   YZ=              0.8887
 Traceless Quadrupole moment (field-independent basis, Debye-Ang):
   XX=            -35.9094   YY=            -15.9594   ZZ=             51.8688
   XY=             27.6434   XZ=             51.5948   YZ=              0.8887
 Octapole moment (field-independent basis, Debye-Ang**2):
  XXX=           -539.0439  YYY=            823.2896  ZZZ=           -779.3997  XYY=           -412.7982
  XXY=            -74.2324  XXZ=            -71.1990  XZZ=             33.0970  YZZ=            -29.0497
  YYZ=           -454.7488  XYZ=            -46.1107
 Hexadecapole moment (field-independent basis, Debye-Ang**3):
 XXXX=         -85659.7471 YYYY=         -67065.9140 ZZZZ=         -51910.4359 XXXY=            518.1080
 XXXZ=            312.2158 YYYX=           1957.4303 YYYZ=          -1786.6678 ZZZX=           2035.3812
 ZZZY=            933.5549 XXYY=         -25945.9926 XXZZ=         -22806.7032 YYZZ=         -19457.3936
 XXYZ=           -585.6815 YYXZ=           -175.9814 ZZXY=             14.8205
 N-N= 3.141870423497D+04 E-N=-7.561573929167D+04  KE= 5.413592218412D+03
 Leave Link  601 at Wed Jun 28 09:14:06 2017, MaxMem=  2147483648 cpu:        21.6
 (Enter /usr/local/g09/l9999.exe)
 1\1\GINC-ROOS11\FTS\RB3LYP\6-31G(d,p)\C91H157N10O18(1-)\FERRAN\28-Jun-
 2017\0\\#p opt=(calcfc,ts,modredundant,noeigentest) b3lyp/6-31g(d,p) e
 mpiricaldispersion=gd3\\Title Card Required\\-1,1\C,5.2999652884,0.253
 0540976,0.6102561521\C,3.8169228612,0.6356825931,0.592403891\N,5.63741
 36549,-0.6687779674,-0.465285669\H,3.5232398003,0.9188991661,-0.422092
 5117\O,3.014393224,-0.4581678228,1.0202268307\H,3.6489671787,1.4852966
 192,1.2594275583\C,5.6404685873,-0.2928455046,2.011324413\H,5.88929423
 26,1.163140098,0.4624966895\C,6.8595454203,-0.6245253519,-1.0898413856
 \H,5.1527821957,-1.5630034008,-0.4840481012\N,6.2226550464,-1.51348309
 47,2.0611910196\O,5.3673434075,0.3686253985,3.0142655588\C,7.209581,-1
 .819002,-1.98289\O,7.6405171541,0.3136395376,-0.9577358344\C,6.46951,-
 2.198872,3.320635\H,6.3184526505,-2.0430633419,1.2048852712\C,6.052808
 9179,-2.4807694572,-2.749181933\H,7.9679757965,-1.4422463057,-2.673580
 3983\H,7.6908094982,-2.5690511196,-1.3440496383\C,6.155062834,-3.69728
 50353,3.2097149338\H,5.8465315903,-1.7153910651,4.0766848574\H,7.51494
 17937,-2.0591974482,3.6296386237\C,5.2691992324,-3.5356840899,-1.94864
 8627\H,6.4273346718,-2.9785984983,-3.6490349615\H,5.3393545794,-1.7218
 41139,-3.0993878433\C,4.7317100347,-4.0530561971,2.7308389572\H,6.3285
 311584,-4.1488113142,4.1971361382\H,6.8809463107,-4.1644157559,2.52826
 00628\O,4.55866207,-4.3457373826,-2.6243204707\O,5.3709865023,-3.51975
 03971,-0.6892462453\C,3.6469405559,-3.3921053987,3.5909860617\C,4.5598
 554208,-5.5785259998,2.6906422012\H,4.6251106593,-3.6831996792,1.70453
 56836\H,2.6471735553,-3.7658704111,3.3537453174\H,3.8076733448,-3.5975
 450167,4.6574142953\H,3.6316633862,-2.3084516509,3.4506336026\H,5.3727
 06857,-6.0584851885,2.131842814\H,4.5639347622,-5.997496229,3.70535337
 7\H,3.6210597065,-5.869357331,2.2094744037\C,1.9065622296,-1.228509550
 1,-0.2833921048\C,2.1257214948,-2.6608657888,0.1474353241\O,0.69714922
 27,-0.715516534,0.2618729066\O,2.2746308938,-0.7869640839,-1.391129848
 1\H,3.1278116899,-3.0047125836,-0.1100892975\H,1.3960113657,-3.2869589
 785,-0.3796576664\H,1.9587087341,-2.7647146573,1.2188247585\C,-0.41784
 56021,-0.8557573046,-0.6028101869\C,-0.7987879399,0.4212085976,-1.3189
 179494\H,-0.2330460211,-1.6244489886,-1.363757786\H,-1.2565623049,-1.1
 859245479,0.0248406805\C,-1.8717679533,0.3978865104,-2.2227315589\C,-0
 .1239226217,1.6226723879,-1.0990090542\C,-2.2489190962,1.5516982431,-2
 .9143324164\H,-2.4265914282,-0.5279841111,-2.3595484303\C,-0.497838433
 4,2.7784013979,-1.7912518029\H,0.6994685332,1.6433724456,-0.3943325886
 \C,-1.5508614789,2.7474277754,-2.7053625181\H,-3.1114483146,1.53188754
 56,-3.5788507968\H,0.0407651642,3.6995684852,-1.598334304\H,-1.8407685
 763,3.648685748,-3.2375972686\N,1.553119936,0.2871722258,2.8907556718\
 C,0.2719835058,0.5194025104,3.1415854928\C,2.1633952781,0.0774813978,4
 .101338229\N,0.0352489671,0.4746344098,4.4726346472\H,-0.4853146859,0.
 7007490725,2.3969031503\C,1.2347222232,0.2026272578,5.1000881547\H,3.2
 182120285,-0.1439774188,4.1593226478\H,-0.8804637677,0.6137976202,4.95
 32128276\C,1.3651063291,-0.1180238226,6.5453527976\C,1.212727,-1.63646
 4,6.737533\H,2.3498531966,0.1985394224,6.9068131897\H,0.6096394711,0.4
 105034236,7.1388821638\N,-0.1302372277,-2.0644967129,6.4170350921\H,1.
 9003110383,-2.1777211008,6.0847911416\H,1.4551734076,-1.8998255928,7.7
 788531269\C,-0.376665696,-3.0392569127,5.503659196\H,-0.925350398,-1.5
 222335189,6.7719147025\C,-1.855714,-3.292398,5.268693\O,0.5058154208,-
 3.6741298107,4.9200664517\C,-2.3678417293,-2.7969846054,3.8956210575\H
 ,-2.4487144121,-2.8219999236,6.058270945\H,-2.0070754325,-4.3777769696
 ,5.3231435508\C,-1.7411669637,-3.5792933207,2.7323632069\C,-3.91034331
 48,-2.8673229234,3.9149039082\H,-2.0838703289,-1.7393884076,3.79018989
 77\H,-2.0176974796,-3.1493404315,1.7640246412\H,-2.0788230654,-4.62383
 38696,2.7396615234\H,-0.6530374563,-3.5851710083,2.8174126341\C,-4.580
 7380933,-2.6688428885,2.5559593901\H,-4.2759098506,-2.1190318137,4.630
 1012976\H,-4.2110366354,-3.8462634571,4.3168292866\H,-4.2194223461,-1.
 7655537895,2.0567341989\H,-5.6687329164,-2.5749184516,2.6586183606\H,-
 4.3838919235,-3.5138787433,1.8936276612\O,2.5157784668,-7.2262370095,0
 .3162263752\C,1.658862,-6.520053,-0.563487\H,3.4336399443,-7.030574649
 7,0.0131764663\C,1.241294,-7.416377,-1.717538\C,0.4551425073,-6.023959
 1305,0.2392879925\H,2.1886414239,-5.6431277551,-0.9738890511\H,0.82586
 51452,-8.3492051149,-1.3194180069\H,0.4770495501,-6.9506897621,-2.3506
 392505\H,2.102498511,-7.6736775434,-2.3437002619\H,-0.095765618,-6.873
 4741541,0.6587497995\H,-0.2336672796,-5.4411933495,-0.3846625515\H,0.7
 846070436,-5.3946644713,1.0698308292\N,2.4109352647,-2.7573206988,-3.2
 02244978\C,1.3149684307,-2.772852326,-3.926525066\H,2.4659564243,-2.04
 23714227,-2.4518061679\H,3.1731242994,-3.4517918337,-3.2624484609\C,1.
 190008,-3.809602,-5.017866\O,0.3389953752,-1.9957116329,-3.7028251881\
 C,0.312619,-4.946534,-4.488915\H,2.171741627,-4.1876751015,-5.31715588
 19\H,0.7333143755,-3.3328125042,-5.8940190271\H,-0.6316446222,-4.55555
 72038,-4.1001890039\H,0.0923846957,-5.68487049,-5.2663400307\H,0.82180
 13316,-5.460049751,-3.6721660803\N,-1.3950885954,-0.9742816351,-5.2548
 740402\C,-2.3080003356,-2.0734382059,-5.7311638516\H,-0.9518433532,-0.
 4591521879,-6.0221954845\H,-0.654203398,-1.39028824,-4.6815933864\H,-1
 .8592308605,-0.284561714,-4.6553564843\C,-3.0780626824,-2.6554877759,-
 4.5460122794\H,-2.9635891127,-1.6749331826,-6.50928026\H,-1.653674876,
 -2.8252608381,-6.1815638365\C,-3.5481524276,-4.1045825508,-4.719234062
 1\H,-3.9271455525,-2.0078240785,-4.30375877\H,-2.4150688286,-2.6404769
 231,-3.6734069244\C,-4.60858,-4.452146,-5.785357\H,-3.9416468486,-4.40
 64739441,-3.7435937322\H,-2.6686148675,-4.7396956695,-4.8868371\C,-5.0
 88161,-5.878845,-5.50535\H,-4.1977641846,-4.3686584476,-6.7999352308\H
 ,-5.4513545196,-3.7501945953,-5.721356858\H,-5.8320217221,-6.215695455
 7,-6.2351523453\H,-4.2508640632,-6.5848751235,-5.5338017229\H,-5.53876
 13711,-5.9431842436,-4.5093729357\C,-5.0952085024,-3.2033484299,-0.682
 4855766\C,-3.7617829014,-2.8167207704,-0.836011451\C,-5.4806414879,-4.
 5442633785,-0.8121804602\H,-5.831204028,-2.455041972,-0.404592034\C,-2
 .7831625278,-3.7683885214,-1.1275962263\H,-3.490474388,-1.778947685,-0
 .6688644281\C,-6.918137,-4.970884,-0.596682\C,-4.487385487,-5.48885951
 18,-1.1137771112\C,-3.1524466678,-5.1092069295,-1.2678520637\H,-1.7409
 70918,-3.4771656737,-1.2127173222\H,-6.9694115165,-5.941589523,-0.0940
 632785\H,-7.466847,-5.067109,-1.544743\H,-7.4560291708,-4.2437008639,0
 .0183803824\H,-4.7593421484,-6.5381314918,-1.2015177656\H,-2.395137272
 1,-5.8603378383,-1.4714043815\C,-3.0012231457,0.3957904417,6.619160736
 3\C,-4.350421,1.001151,7.062242\O,-2.3969956171,1.020678175,5.66833778
 38\O,-2.5801840618,-0.6246229044,7.1945973398\H,-4.1766557697,1.998973
 5003,7.4791188798\H,-4.850115,0.370113,7.811859\H,-5.0015845986,1.1319
 910913,6.1917108577\O,5.2237089032,3.6345183403,-0.4584703629\C,4.4445
 230613,3.2957339508,-1.5875316952\H,5.5223968109,4.5542968777,-0.59669
 77217\C,5.189534,2.295651,-2.493076\H,4.1886250606,4.1874196296,-2.170
 9421567\H,3.4966568168,2.8588907784,-1.247664771\C,4.3212689901,1.9275
 764769,-3.6825179628\H,5.47395056,1.4208273219,-1.9108470901\H,6.10076
 38947,2.7644182025,-2.8711418906\N,3.5534813366,0.8086896699,-3.548343
 735\O,4.2778974893,2.6289440025,-4.7022810092\C,2.605593,0.43234,-4.58
 6751\H,3.4770002595,0.3380311899,-2.6519373391\C,1.2288012448,1.073503
 2403,-4.411156167\H,2.5265099469,-0.653929073,-4.5951256738\H,3.044491
 0139,0.7530211358,-5.5354498514\H,1.3213867071,2.1540800457,-4.2832121
 124\H,0.6187500927,0.9066079159,-5.3118369752\H,0.7156406693,0.6557543
 81,-3.5457567651\C,0.5134013831,5.26549193,0.6003541229\C,-0.105770374
 2,4.9431385826,1.806154868\C,1.8885532141,5.0148768505,0.3949848259\H,
 -0.0761613799,5.7129300537,-0.1968693579\C,0.6855090001,4.3794510114,2
 .8136866076\H,-1.1650424857,5.1271890033,1.965941784\C,2.6719486318,4.
 4429718543,1.3951187698\H,2.3522029691,5.2925410631,-0.5479595996\N,0.
 3514714364,3.9771088534,4.0842892802\C,2.07950693,4.1239478763,2.62945
 57083\H,3.7203075348,4.2365881564,1.2037368865\C,1.4824585329,3.458524
 5586,4.6884407132\H,-0.60816825,3.8895510852,4.4355136075\C,2.57132600
 23,3.5313152385,3.8501715901\H,1.415684657,3.0356520411,5.6805108683\C
 ,3.930589,2.926877,4.053098\H,4.4732377535,2.882222642,3.1057745338\H,
 4.62228,3.388435,4.772455\H,3.839843593,1.8886763533,4.3689573495\C,-5
 .2217861803,0.6835149003,2.9075091338\C,-3.8803237812,1.0152885667,2.7
 08376645\C,-6.1017315495,0.5175506185,1.8280892846\H,-5.5829984205,0.5
 240718194,3.9201964787\C,-3.4011069761,1.2140557655,1.4084549536\H,-3.
 2252183139,1.0857074799,3.5724923184\C,-7.540394,0.127674,2.074187\C,-
 5.6016460393,0.7030640767,0.5341663869\C,-4.2666392502,1.0606154407,0.
 3236872618\H,-2.3660015222,1.4938825734,1.2334441654\H,-7.6010421507,-
 0.8723763321,2.5199257401\H,-8.140814,0.115976,1.152478\H,-8.021932415
 4,0.8208615463,2.7727491133\H,-6.2666757622,0.5815531648,-0.31720136\H
 ,-3.9019750374,1.2308403703,-0.6826821382\C,-5.5195971977,-0.143058037
 7,-2.9949684319\C,-6.6540203618,-1.1713458731,-2.9718026437\H,-5.86896
 21629,0.8645058008,-2.7511702329\H,-5.0535258487,-0.0922841046,-3.9879
 430687\H,-4.7462011907,-0.4030477793,-2.2699630479\C,-7.687163,-1.0124
 21,-4.096957\H,-6.2262844703,-2.1804054338,-3.0188390077\H,-7.17025150
 45,-1.1142118276,-2.0030344124\C,-8.328226962,0.383689691,-4.105812130
 3\C,-8.777001,-2.094429,-3.997759\H,-7.1591006688,-1.1490126005,-5.054
 5008959\H,-9.0910379274,0.4615631533,-4.8880847996\H,-8.8159437268,0.5
 882081888,-3.1444317132\H,-7.5932416337,1.1750169147,-4.2798037808\H,-
 8.3423895462,-3.1006970089,-4.0038864495\H,-9.344708788,-1.9840317385,
 -3.0659594676\H,-9.4849855343,-2.0260186768,-4.8305640015\C,2.27991484
 45,5.3222312256,-4.0180779134\C,3.5179386236,6.2132299373,-4.193235728
 4\H,1.8394476949,5.423428642,-3.0203189061\H,1.5094477044,5.5810583725
 ,-4.7571546354\H,2.5575773232,4.2760537027,-4.1677991957\C,4.202756690
 5,5.9405185041,-5.5359752322\C,3.171318,7.713028,-4.026243\H,4.2255305
 578,5.9662718813,-3.3936645033\H,5.0925068064,6.5684655619,-5.66535097
 83\H,3.5231951559,6.1488008497,-6.3727894549\H,4.5022431293,4.89011422
 98,-5.5860774807\C,2.6835749787,7.9969374565,-2.6299125284\H,4.0732358
 713,8.3147313148,-4.1891891365\H,2.4367516028,8.0117906253,-4.78548597
 63\N,1.3975574546,8.3952424675,-2.5236194845\O,3.3939232215,7.84043588
 32,-1.6302888014\C,0.799118,8.635396,-1.230302\H,0.8546521348,8.527409
 8827,-3.3612409135\H,1.1198320723,7.8637126158,-0.5265782673\H,1.09224
 04191,9.6101522085,-0.8228116106\H,-0.2888267027,8.6044421489,-1.32225
 67908\C,-7.3246384229,3.8156499858,0.532229918\C,-8.1473590517,4.78291
 5151,-0.0465442376\C,-6.224124928,4.1951995387,1.3025435651\H,-7.53570
 35665,2.76120525,0.385089898\C,-7.8893109225,6.149645466,0.1270959005\
 H,-9.0023272383,4.4747781754,-0.6447560185\C,-5.962126948,5.5538781077
 ,1.4914371707\H,-5.5861865229,3.4374805861,1.7468940423\C,-8.753058,7.
 185145,-0.557383\C,-6.7869936689,6.5191179307,0.9091486873\H,-5.113620
 3826,5.8636231058,2.0952224818\H,-8.3374680715,7.4547728023,-1.5370750
 741\H,-8.844283,8.120985,0.017051\H,-9.7648771722,6.8053205806,-0.7320
 507431\H,-6.5720850541,7.5742554821,1.0626810858\O,4.8509129064,-6.314
 2549577,-0.6895239745\H,5.0554588007,-5.5142034889,-0.1747550062\H,4.6
 195537258,-5.8799641628,-1.5378423673\O,5.6548587491,6.2611412622,-1.2
 468676937\H,6.1654681016,6.4058421528,-2.0509574057\H,4.8649007259,6.8
 343655307,-1.3382000499\O,-2.4224111955,3.5490814744,4.7914588417\H,-2
 .8543626533,3.4022568332,3.9405512259\H,-2.4711072977,2.6568984332,5.2
 260057978\H,2.3142446379,-0.0992963958,1.778489153\\Version=ES64L-G09R
 evD.01\State=1-A\HF=-5464.7991841\RMSD=3.701e-09\RMSF=2.420e-03\Dipole
 =-9.293208,2.4118616,-10.044736\Quadrupole=-26.6958148,-11.8673771,38.
 5631919,20.5529139,38.3594853,0.6588896\PG=C01 [X(C91H157N10O18)]\\@


      LET US REMEMBER, PLEASE, THAT THE SEARCH FOR THE CONSTITUTION
      OF THE WORLD IS ONE OF THE GREATEST AND NOBLEST PROBLEMS PRESENTED 
      BY NATURE.

                                                  -- GALILEO
 Job cpu time:      12 days 20 hours 40 minutes 46.1 seconds.
 File lengths (MBytes):  RWF= 165758 Int=      0 D2E=      0 Chk=    513 Scr=      1
 Normal termination of Gaussian 09 at Wed Jun 28 09:14:19 2017.
